h 0.5 1 2 cbr 1000 ------- 0 1.0 0.0 0 0
+ 0.5 1 2 cbr 1000 ------- 0 1.0 0.0 0 0
- 0.5 1 2 cbr 1000 ------- 0 1.0 0.0 0 0
r 0.508116 2 0 cbr 1000 ------- 0 1.0 0.0 0 0
h 0.58 1 2 cbr 1000 ------- 0 1.0 0.0 1 1
+ 0.58 1 2 cbr 1000 ------- 0 1.0 0.0 1 1
- 0.58 1 2 cbr 1000 ------- 0 1.0 0.0 1 1
r 0.588116 2 0 cbr 1000 ------- 0 1.0 0.0 1 1
h 0.66 1 2 cbr 1000 ------- 0 1.0 0.0 2 2
+ 0.66 1 2 cbr 1000 ------- 0 1.0 0.0 2 2
- 0.66 1 2 cbr 1000 ------- 0 1.0 0.0 2 2
r 0.668116 2 0 cbr 1000 ------- 0 1.0 0.0 2 2
h 0.74 1 2 cbr 1000 ------- 0 1.0 0.0 3 3
+ 0.74 1 2 cbr 1000 ------- 0 1.0 0.0 3 3
- 0.74 1 2 cbr 1000 ------- 0 1.0 0.0 3 3
r 0.748116 2 0 cbr 1000 ------- 0 1.0 0.0 3 3
h 0.82 1 2 cbr 1000 ------- 0 1.0 0.0 4 4
+ 0.82 1 2 cbr 1000 ------- 0 1.0 0.0 4 4
- 0.82 1 2 cbr 1000 ------- 0 1.0 0.0 4 4
r 0.828116 2 0 cbr 1000 ------- 0 1.0 0.0 4 4
h 0.9 1 2 cbr 1000 ------- 0 1.0 0.0 5 5
+ 0.9 1 2 cbr 1000 ------- 0 1.0 0.0 5 5
- 0.9 1 2 cbr 1000 ------- 0 1.0 0.0 5 5
r 0.908116 2 0 cbr 1000 ------- 0 1.0 0.0 5 5
h 0.98 1 2 cbr 1000 ------- 0 1.0 0.0 6 6
+ 0.98 1 2 cbr 1000 ------- 0 1.0 0.0 6 6
- 0.98 1 2 cbr 1000 ------- 0 1.0 0.0 6 6
r 0.988116 2 0 cbr 1000 ------- 0 1.0 0.0 6 6
h 1.06 1 2 cbr 1000 ------- 0 1.0 0.0 7 7
+ 1.06 1 2 cbr 1000 ------- 0 1.0 0.0 7 7
- 1.06 1 2 cbr 1000 ------- 0 1.0 0.0 7 7
r 1.068116 2 0 cbr 1000 ------- 0 1.0 0.0 7 7
h 1.14 1 2 cbr 1000 ------- 0 1.0 0.0 8 8
+ 1.14 1 2 cbr 1000 ------- 0 1.0 0.0 8 8
- 1.14 1 2 cbr 1000 ------- 0 1.0 0.0 8 8
r 1.148116 2 0 cbr 1000 ------- 0 1.0 0.0 8 8
h 1.22 1 2 cbr 1000 ------- 0 1.0 0.0 9 9
+ 1.22 1 2 cbr 1000 ------- 0 1.0 0.0 9 9
- 1.22 1 2 cbr 1000 ------- 0 1.0 0.0 9 9
r 1.228116 2 0 cbr 1000 ------- 0 1.0 0.0 9 9
h 1.3 1 2 cbr 1000 ------- 0 1.0 0.0 10 10
+ 1.3 1 2 cbr 1000 ------- 0 1.0 0.0 10 10
- 1.3 1 2 cbr 1000 ------- 0 1.0 0.0 10 10
r 1.308116 2 0 cbr 1000 ------- 0 1.0 0.0 10 10
h 1.38 1 2 cbr 1000 ------- 0 1.0 0.0 11 11
+ 1.38 1 2 cbr 1000 ------- 0 1.0 0.0 11 11
- 1.38 1 2 cbr 1000 ------- 0 1.0 0.0 11 11
r 1.388116 2 0 cbr 1000 ------- 0 1.0 0.0 11 11
h 1.46 1 2 cbr 1000 ------- 0 1.0 0.0 12 12
+ 1.46 1 2 cbr 1000 ------- 0 1.0 0.0 12 12
- 1.46 1 2 cbr 1000 ------- 0 1.0 0.0 12 12
r 1.468116 2 0 cbr 1000 ------- 0 1.0 0.0 12 12
h 1.54 1 2 cbr 1000 ------- 0 1.0 0.0 13 13
+ 1.54 1 2 cbr 1000 ------- 0 1.0 0.0 13 13
- 1.54 1 2 cbr 1000 ------- 0 1.0 0.0 13 13
r 1.548116 2 0 cbr 1000 ------- 0 1.0 0.0 13 13
h 1.62 1 2 cbr 1000 ------- 0 1.0 0.0 14 14
+ 1.62 1 2 cbr 1000 ------- 0 1.0 0.0 14 14
- 1.62 1 2 cbr 1000 ------- 0 1.0 0.0 14 14
r 1.628116 2 0 cbr 1000 ------- 0 1.0 0.0 14 14
h 1.7 1 2 cbr 1000 ------- 0 1.0 0.0 15 15
+ 1.7 1 2 cbr 1000 ------- 0 1.0 0.0 15 15
- 1.7 1 2 cbr 1000 ------- 0 1.0 0.0 15 15
r 1.708116 2 0 cbr 1000 ------- 0 1.0 0.0 15 15
h 1.78 1 2 cbr 1000 ------- 0 1.0 0.0 16 16
+ 1.78 1 2 cbr 1000 ------- 0 1.0 0.0 16 16
- 1.78 1 2 cbr 1000 ------- 0 1.0 0.0 16 16
r 1.788116 2 0 cbr 1000 ------- 0 1.0 0.0 16 16
h 1.86 1 2 cbr 1000 ------- 0 1.0 0.0 17 17
+ 1.86 1 2 cbr 1000 ------- 0 1.0 0.0 17 17
- 1.86 1 2 cbr 1000 ------- 0 1.0 0.0 17 17
r 1.868116 2 0 cbr 1000 ------- 0 1.0 0.0 17 17
h 1.94 1 2 cbr 1000 ------- 0 1.0 0.0 18 18
+ 1.94 1 2 cbr 1000 ------- 0 1.0 0.0 18 18
- 1.94 1 2 cbr 1000 ------- 0 1.0 0.0 18 18
r 1.948116 2 0 cbr 1000 ------- 0 1.0 0.0 18 18
h 2.02 1 2 cbr 1000 ------- 0 1.0 0.0 19 19
+ 2.02 1 2 cbr 1000 ------- 0 1.0 0.0 19 19
- 2.02 1 2 cbr 1000 ------- 0 1.0 0.0 19 19
r 2.028116 2 0 cbr 1000 ------- 0 1.0 0.0 19 19
h 2.1 1 2 cbr 1000 ------- 0 1.0 0.0 20 20
+ 2.1 1 2 cbr 1000 ------- 0 1.0 0.0 20 20
- 2.1 1 2 cbr 1000 ------- 0 1.0 0.0 20 20
r 2.108116 2 0 cbr 1000 ------- 0 1.0 0.0 20 20
h 2.18 1 2 cbr 1000 ------- 0 1.0 0.0 21 21
+ 2.18 1 2 cbr 1000 ------- 0 1.0 0.0 21 21
- 2.18 1 2 cbr 1000 ------- 0 1.0 0.0 21 21
r 2.188116 2 0 cbr 1000 ------- 0 1.0 0.0 21 21
h 2.26 1 2 cbr 1000 ------- 0 1.0 0.0 22 22
+ 2.26 1 2 cbr 1000 ------- 0 1.0 0.0 22 22
- 2.26 1 2 cbr 1000 ------- 0 1.0 0.0 22 22
r 2.268116 2 0 cbr 1000 ------- 0 1.0 0.0 22 22
h 2.34 1 2 cbr 1000 ------- 0 1.0 0.0 23 23
+ 2.34 1 2 cbr 1000 ------- 0 1.0 0.0 23 23
- 2.34 1 2 cbr 1000 ------- 0 1.0 0.0 23 23
r 2.348116 2 0 cbr 1000 ------- 0 1.0 0.0 23 23
h 2.42 1 2 cbr 1000 ------- 0 1.0 0.0 24 24
+ 2.42 1 2 cbr 1000 ------- 0 1.0 0.0 24 24
- 2.42 1 2 cbr 1000 ------- 0 1.0 0.0 24 24
r 2.428116 2 0 cbr 1000 ------- 0 1.0 0.0 24 24
h 2.5 1 2 cbr 1000 ------- 0 1.0 0.0 25 25
+ 2.5 1 2 cbr 1000 ------- 0 1.0 0.0 25 25
- 2.5 1 2 cbr 1000 ------- 0 1.0 0.0 25 25
r 2.508116 2 0 cbr 1000 ------- 0 1.0 0.0 25 25
h 2.58 1 2 cbr 1000 ------- 0 1.0 0.0 26 26
+ 2.58 1 2 cbr 1000 ------- 0 1.0 0.0 26 26
- 2.58 1 2 cbr 1000 ------- 0 1.0 0.0 26 26
r 2.588116 2 0 cbr 1000 ------- 0 1.0 0.0 26 26
h 2.66 1 2 cbr 1000 ------- 0 1.0 0.0 27 27
+ 2.66 1 2 cbr 1000 ------- 0 1.0 0.0 27 27
- 2.66 1 2 cbr 1000 ------- 0 1.0 0.0 27 27
r 2.668116 2 0 cbr 1000 ------- 0 1.0 0.0 27 27
h 2.74 1 2 cbr 1000 ------- 0 1.0 0.0 28 28
+ 2.74 1 2 cbr 1000 ------- 0 1.0 0.0 28 28
- 2.74 1 2 cbr 1000 ------- 0 1.0 0.0 28 28
r 2.748116 2 0 cbr 1000 ------- 0 1.0 0.0 28 28
h 2.82 1 2 cbr 1000 ------- 0 1.0 0.0 29 29
+ 2.82 1 2 cbr 1000 ------- 0 1.0 0.0 29 29
- 2.82 1 2 cbr 1000 ------- 0 1.0 0.0 29 29
r 2.828116 2 0 cbr 1000 ------- 0 1.0 0.0 29 29
h 2.9 1 2 cbr 1000 ------- 0 1.0 0.0 30 30
+ 2.9 1 2 cbr 1000 ------- 0 1.0 0.0 30 30
- 2.9 1 2 cbr 1000 ------- 0 1.0 0.0 30 30
r 2.908116 2 0 cbr 1000 ------- 0 1.0 0.0 30 30
h 2.98 1 2 cbr 1000 ------- 0 1.0 0.0 31 31
+ 2.98 1 2 cbr 1000 ------- 0 1.0 0.0 31 31
- 2.98 1 2 cbr 1000 ------- 0 1.0 0.0 31 31
r 2.988116 2 0 cbr 1000 ------- 0 1.0 0.0 31 31
h 3.06 1 2 cbr 1000 ------- 0 1.0 0.0 32 32
+ 3.06 1 2 cbr 1000 ------- 0 1.0 0.0 32 32
- 3.06 1 2 cbr 1000 ------- 0 1.0 0.0 32 32
r 3.068116 2 0 cbr 1000 ------- 0 1.0 0.0 32 32
h 3.14 1 2 cbr 1000 ------- 0 1.0 0.0 33 33
+ 3.14 1 2 cbr 1000 ------- 0 1.0 0.0 33 33
- 3.14 1 2 cbr 1000 ------- 0 1.0 0.0 33 33
r 3.148116 2 0 cbr 1000 ------- 0 1.0 0.0 33 33
h 3.22 1 2 cbr 1000 ------- 0 1.0 0.0 34 34
+ 3.22 1 2 cbr 1000 ------- 0 1.0 0.0 34 34
- 3.22 1 2 cbr 1000 ------- 0 1.0 0.0 34 34
r 3.228116 2 0 cbr 1000 ------- 0 1.0 0.0 34 34
h 3.3 1 2 cbr 1000 ------- 0 1.0 0.0 35 35
+ 3.3 1 2 cbr 1000 ------- 0 1.0 0.0 35 35
- 3.3 1 2 cbr 1000 ------- 0 1.0 0.0 35 35
r 3.308116 2 0 cbr 1000 ------- 0 1.0 0.0 35 35
h 3.38 1 2 cbr 1000 ------- 0 1.0 0.0 36 36
+ 3.38 1 2 cbr 1000 ------- 0 1.0 0.0 36 36
- 3.38 1 2 cbr 1000 ------- 0 1.0 0.0 36 36
r 3.388116 2 0 cbr 1000 ------- 0 1.0 0.0 36 36
h 3.46 1 2 cbr 1000 ------- 0 1.0 0.0 37 37
+ 3.46 1 2 cbr 1000 ------- 0 1.0 0.0 37 37
- 3.46 1 2 cbr 1000 ------- 0 1.0 0.0 37 37
r 3.468116 2 0 cbr 1000 ------- 0 1.0 0.0 37 37
h 3.54 1 2 cbr 1000 ------- 0 1.0 0.0 38 38
+ 3.54 1 2 cbr 1000 ------- 0 1.0 0.0 38 38
- 3.54 1 2 cbr 1000 ------- 0 1.0 0.0 38 38
r 3.548116 2 0 cbr 1000 ------- 0 1.0 0.0 38 38
h 3.62 1 2 cbr 1000 ------- 0 1.0 0.0 39 39
+ 3.62 1 2 cbr 1000 ------- 0 1.0 0.0 39 39
- 3.62 1 2 cbr 1000 ------- 0 1.0 0.0 39 39
r 3.628116 2 0 cbr 1000 ------- 0 1.0 0.0 39 39
h 3.7 1 2 cbr 1000 ------- 0 1.0 0.0 40 40
+ 3.7 1 2 cbr 1000 ------- 0 1.0 0.0 40 40
- 3.7 1 2 cbr 1000 ------- 0 1.0 0.0 40 40
r 3.708116 2 0 cbr 1000 ------- 0 1.0 0.0 40 40
h 3.78 1 2 cbr 1000 ------- 0 1.0 0.0 41 41
+ 3.78 1 2 cbr 1000 ------- 0 1.0 0.0 41 41
- 3.78 1 2 cbr 1000 ------- 0 1.0 0.0 41 41
r 3.788116 2 0 cbr 1000 ------- 0 1.0 0.0 41 41
h 3.86 1 2 cbr 1000 ------- 0 1.0 0.0 42 42
+ 3.86 1 2 cbr 1000 ------- 0 1.0 0.0 42 42
- 3.86 1 2 cbr 1000 ------- 0 1.0 0.0 42 42
r 3.868116 2 0 cbr 1000 ------- 0 1.0 0.0 42 42
h 3.94 1 2 cbr 1000 ------- 0 1.0 0.0 43 43
+ 3.94 1 2 cbr 1000 ------- 0 1.0 0.0 43 43
- 3.94 1 2 cbr 1000 ------- 0 1.0 0.0 43 43
r 3.948116 2 0 cbr 1000 ------- 0 1.0 0.0 43 43
h 4.02 1 2 cbr 1000 ------- 0 1.0 0.0 44 44
+ 4.02 1 2 cbr 1000 ------- 0 1.0 0.0 44 44
- 4.02 1 2 cbr 1000 ------- 0 1.0 0.0 44 44
r 4.028116 2 0 cbr 1000 ------- 0 1.0 0.0 44 44
h 4.1 1 2 cbr 1000 ------- 0 1.0 0.0 45 45
+ 4.1 1 2 cbr 1000 ------- 0 1.0 0.0 45 45
- 4.1 1 2 cbr 1000 ------- 0 1.0 0.0 45 45
r 4.108116 2 0 cbr 1000 ------- 0 1.0 0.0 45 45
h 4.18 1 2 cbr 1000 ------- 0 1.0 0.0 46 46
+ 4.18 1 2 cbr 1000 ------- 0 1.0 0.0 46 46
- 4.18 1 2 cbr 1000 ------- 0 1.0 0.0 46 46
r 4.188116 2 0 cbr 1000 ------- 0 1.0 0.0 46 46
h 4.26 1 2 cbr 1000 ------- 0 1.0 0.0 47 47
+ 4.26 1 2 cbr 1000 ------- 0 1.0 0.0 47 47
- 4.26 1 2 cbr 1000 ------- 0 1.0 0.0 47 47
r 4.268116 2 0 cbr 1000 ------- 0 1.0 0.0 47 47
h 4.34 1 2 cbr 1000 ------- 0 1.0 0.0 48 48
+ 4.34 1 2 cbr 1000 ------- 0 1.0 0.0 48 48
- 4.34 1 2 cbr 1000 ------- 0 1.0 0.0 48 48
r 4.348116 2 0 cbr 1000 ------- 0 1.0 0.0 48 48
h 4.42 1 2 cbr 1000 ------- 0 1.0 0.0 49 49
+ 4.42 1 2 cbr 1000 ------- 0 1.0 0.0 49 49
- 4.42 1 2 cbr 1000 ------- 0 1.0 0.0 49 49
r 4.428116 2 0 cbr 1000 ------- 0 1.0 0.0 49 49
h 4.5 1 2 cbr 1000 ------- 0 1.0 0.0 50 50
+ 4.5 1 2 cbr 1000 ------- 0 1.0 0.0 50 50
- 4.5 1 2 cbr 1000 ------- 0 1.0 0.0 50 50
r 4.508116 2 0 cbr 1000 ------- 0 1.0 0.0 50 50
h 4.58 1 2 cbr 1000 ------- 0 1.0 0.0 51 51
+ 4.58 1 2 cbr 1000 ------- 0 1.0 0.0 51 51
- 4.58 1 2 cbr 1000 ------- 0 1.0 0.0 51 51
r 4.588116 2 0 cbr 1000 ------- 0 1.0 0.0 51 51
h 4.66 1 2 cbr 1000 ------- 0 1.0 0.0 52 52
+ 4.66 1 2 cbr 1000 ------- 0 1.0 0.0 52 52
- 4.66 1 2 cbr 1000 ------- 0 1.0 0.0 52 52
r 4.668116 2 0 cbr 1000 ------- 0 1.0 0.0 52 52
h 4.74 1 2 cbr 1000 ------- 0 1.0 0.0 53 53
+ 4.74 1 2 cbr 1000 ------- 0 1.0 0.0 53 53
- 4.74 1 2 cbr 1000 ------- 0 1.0 0.0 53 53
r 4.748116 2 0 cbr 1000 ------- 0 1.0 0.0 53 53
h 4.82 1 2 cbr 1000 ------- 0 1.0 0.0 54 54
+ 4.82 1 2 cbr 1000 ------- 0 1.0 0.0 54 54
- 4.82 1 2 cbr 1000 ------- 0 1.0 0.0 54 54
r 4.828116 2 0 cbr 1000 ------- 0 1.0 0.0 54 54
h 4.9 1 2 cbr 1000 ------- 0 1.0 0.0 55 55
+ 4.9 1 2 cbr 1000 ------- 0 1.0 0.0 55 55
- 4.9 1 2 cbr 1000 ------- 0 1.0 0.0 55 55
r 4.908116 2 0 cbr 1000 ------- 0 1.0 0.0 55 55
h 4.98 1 2 cbr 1000 ------- 0 1.0 0.0 56 56
+ 4.98 1 2 cbr 1000 ------- 0 1.0 0.0 56 56
- 4.98 1 2 cbr 1000 ------- 0 1.0 0.0 56 56
r 4.988116 2 0 cbr 1000 ------- 0 1.0 0.0 56 56
h 5.06 1 2 cbr 1000 ------- 0 1.0 0.0 57 57
+ 5.06 1 2 cbr 1000 ------- 0 1.0 0.0 57 57
- 5.06 1 2 cbr 1000 ------- 0 1.0 0.0 57 57
r 5.068116 2 0 cbr 1000 ------- 0 1.0 0.0 57 57
h 5.14 1 2 cbr 1000 ------- 0 1.0 0.0 58 58
+ 5.14 1 2 cbr 1000 ------- 0 1.0 0.0 58 58
- 5.14 1 2 cbr 1000 ------- 0 1.0 0.0 58 58
r 5.148116 2 0 cbr 1000 ------- 0 1.0 0.0 58 58
h 5.22 1 2 cbr 1000 ------- 0 1.0 0.0 59 59
+ 5.22 1 2 cbr 1000 ------- 0 1.0 0.0 59 59
- 5.22 1 2 cbr 1000 ------- 0 1.0 0.0 59 59
r 5.228116 2 0 cbr 1000 ------- 0 1.0 0.0 59 59
h 5.3 1 2 cbr 1000 ------- 0 1.0 0.0 60 60
+ 5.3 1 2 cbr 1000 ------- 0 1.0 0.0 60 60
- 5.3 1 2 cbr 1000 ------- 0 1.0 0.0 60 60
r 5.308116 2 0 cbr 1000 ------- 0 1.0 0.0 60 60
h 5.38 1 2 cbr 1000 ------- 0 1.0 0.0 61 61
+ 5.38 1 2 cbr 1000 ------- 0 1.0 0.0 61 61
- 5.38 1 2 cbr 1000 ------- 0 1.0 0.0 61 61
r 5.388116 2 0 cbr 1000 ------- 0 1.0 0.0 61 61
h 5.46 1 2 cbr 1000 ------- 0 1.0 0.0 62 62
+ 5.46 1 2 cbr 1000 ------- 0 1.0 0.0 62 62
- 5.46 1 2 cbr 1000 ------- 0 1.0 0.0 62 62
r 5.468116 2 0 cbr 1000 ------- 0 1.0 0.0 62 62
h 5.54 1 2 cbr 1000 ------- 0 1.0 0.0 63 63
+ 5.54 1 2 cbr 1000 ------- 0 1.0 0.0 63 63
- 5.54 1 2 cbr 1000 ------- 0 1.0 0.0 63 63
r 5.548116 2 0 cbr 1000 ------- 0 1.0 0.0 63 63
h 5.62 1 2 cbr 1000 ------- 0 1.0 0.0 64 64
+ 5.62 1 2 cbr 1000 ------- 0 1.0 0.0 64 64
- 5.62 1 2 cbr 1000 ------- 0 1.0 0.0 64 64
r 5.628116 2 0 cbr 1000 ------- 0 1.0 0.0 64 64
h 5.7 1 2 cbr 1000 ------- 0 1.0 0.0 65 65
+ 5.7 1 2 cbr 1000 ------- 0 1.0 0.0 65 65
- 5.7 1 2 cbr 1000 ------- 0 1.0 0.0 65 65
r 5.708116 2 0 cbr 1000 ------- 0 1.0 0.0 65 65
h 5.78 1 2 cbr 1000 ------- 0 1.0 0.0 66 66
+ 5.78 1 2 cbr 1000 ------- 0 1.0 0.0 66 66
- 5.78 1 2 cbr 1000 ------- 0 1.0 0.0 66 66
r 5.788116 2 0 cbr 1000 ------- 0 1.0 0.0 66 66
h 5.86 1 2 cbr 1000 ------- 0 1.0 0.0 67 67
+ 5.86 1 2 cbr 1000 ------- 0 1.0 0.0 67 67
- 5.86 1 2 cbr 1000 ------- 0 1.0 0.0 67 67
r 5.868116 2 0 cbr 1000 ------- 0 1.0 0.0 67 67
h 5.94 1 2 cbr 1000 ------- 0 1.0 0.0 68 68
+ 5.94 1 2 cbr 1000 ------- 0 1.0 0.0 68 68
- 5.94 1 2 cbr 1000 ------- 0 1.0 0.0 68 68
r 5.948116 2 0 cbr 1000 ------- 0 1.0 0.0 68 68
h 6.02 1 2 cbr 1000 ------- 0 1.0 0.0 69 69
+ 6.02 1 2 cbr 1000 ------- 0 1.0 0.0 69 69
- 6.02 1 2 cbr 1000 ------- 0 1.0 0.0 69 69
r 6.028116 2 0 cbr 1000 ------- 0 1.0 0.0 69 69
h 6.1 1 2 cbr 1000 ------- 0 1.0 0.0 70 70
+ 6.1 1 2 cbr 1000 ------- 0 1.0 0.0 70 70
- 6.1 1 2 cbr 1000 ------- 0 1.0 0.0 70 70
r 6.108116 2 0 cbr 1000 ------- 0 1.0 0.0 70 70
h 6.18 1 2 cbr 1000 ------- 0 1.0 0.0 71 71
+ 6.18 1 2 cbr 1000 ------- 0 1.0 0.0 71 71
- 6.18 1 2 cbr 1000 ------- 0 1.0 0.0 71 71
r 6.188116 2 0 cbr 1000 ------- 0 1.0 0.0 71 71
h 6.26 1 2 cbr 1000 ------- 0 1.0 0.0 72 72
+ 6.26 1 2 cbr 1000 ------- 0 1.0 0.0 72 72
- 6.26 1 2 cbr 1000 ------- 0 1.0 0.0 72 72
r 6.268116 2 0 cbr 1000 ------- 0 1.0 0.0 72 72
h 6.34 1 2 cbr 1000 ------- 0 1.0 0.0 73 73
+ 6.34 1 2 cbr 1000 ------- 0 1.0 0.0 73 73
- 6.34 1 2 cbr 1000 ------- 0 1.0 0.0 73 73
r 6.348116 2 0 cbr 1000 ------- 0 1.0 0.0 73 73
h 6.42 1 2 cbr 1000 ------- 0 1.0 0.0 74 74
+ 6.42 1 2 cbr 1000 ------- 0 1.0 0.0 74 74
- 6.42 1 2 cbr 1000 ------- 0 1.0 0.0 74 74
r 6.428116 2 0 cbr 1000 ------- 0 1.0 0.0 74 74
h 6.5 1 2 cbr 1000 ------- 0 1.0 0.0 75 75
+ 6.5 1 2 cbr 1000 ------- 0 1.0 0.0 75 75
- 6.5 1 2 cbr 1000 ------- 0 1.0 0.0 75 75
r 6.508116 2 0 cbr 1000 ------- 0 1.0 0.0 75 75
h 6.58 1 2 cbr 1000 ------- 0 1.0 0.0 76 76
+ 6.58 1 2 cbr 1000 ------- 0 1.0 0.0 76 76
- 6.58 1 2 cbr 1000 ------- 0 1.0 0.0 76 76
r 6.588116 2 0 cbr 1000 ------- 0 1.0 0.0 76 76
h 6.66 1 2 cbr 1000 ------- 0 1.0 0.0 77 77
+ 6.66 1 2 cbr 1000 ------- 0 1.0 0.0 77 77
- 6.66 1 2 cbr 1000 ------- 0 1.0 0.0 77 77
r 6.668116 2 0 cbr 1000 ------- 0 1.0 0.0 77 77
h 6.74 1 2 cbr 1000 ------- 0 1.0 0.0 78 78
+ 6.74 1 2 cbr 1000 ------- 0 1.0 0.0 78 78
- 6.74 1 2 cbr 1000 ------- 0 1.0 0.0 78 78
r 6.748116 2 0 cbr 1000 ------- 0 1.0 0.0 78 78
h 6.82 1 2 cbr 1000 ------- 0 1.0 0.0 79 79
+ 6.82 1 2 cbr 1000 ------- 0 1.0 0.0 79 79
- 6.82 1 2 cbr 1000 ------- 0 1.0 0.0 79 79
r 6.828116 2 0 cbr 1000 ------- 0 1.0 0.0 79 79
h 6.9 1 2 cbr 1000 ------- 0 1.0 0.0 80 80
+ 6.9 1 2 cbr 1000 ------- 0 1.0 0.0 80 80
- 6.9 1 2 cbr 1000 ------- 0 1.0 0.0 80 80
r 6.908116 2 0 cbr 1000 ------- 0 1.0 0.0 80 80
h 6.98 1 2 cbr 1000 ------- 0 1.0 0.0 81 81
+ 6.98 1 2 cbr 1000 ------- 0 1.0 0.0 81 81
- 6.98 1 2 cbr 1000 ------- 0 1.0 0.0 81 81
r 6.988116 2 0 cbr 1000 ------- 0 1.0 0.0 81 81
h 7.06 1 2 cbr 1000 ------- 0 1.0 0.0 82 82
+ 7.06 1 2 cbr 1000 ------- 0 1.0 0.0 82 82
- 7.06 1 2 cbr 1000 ------- 0 1.0 0.0 82 82
r 7.068116 2 0 cbr 1000 ------- 0 1.0 0.0 82 82
h 7.14 1 2 cbr 1000 ------- 0 1.0 0.0 83 83
+ 7.14 1 2 cbr 1000 ------- 0 1.0 0.0 83 83
- 7.14 1 2 cbr 1000 ------- 0 1.0 0.0 83 83
r 7.148116 2 0 cbr 1000 ------- 0 1.0 0.0 83 83
h 7.22 1 2 cbr 1000 ------- 0 1.0 0.0 84 84
+ 7.22 1 2 cbr 1000 ------- 0 1.0 0.0 84 84
- 7.22 1 2 cbr 1000 ------- 0 1.0 0.0 84 84
r 7.228116 2 0 cbr 1000 ------- 0 1.0 0.0 84 84
h 7.3 1 2 cbr 1000 ------- 0 1.0 0.0 85 85
+ 7.3 1 2 cbr 1000 ------- 0 1.0 0.0 85 85
- 7.3 1 2 cbr 1000 ------- 0 1.0 0.0 85 85
r 7.308116 2 0 cbr 1000 ------- 0 1.0 0.0 85 85
h 7.38 1 2 cbr 1000 ------- 0 1.0 0.0 86 86
+ 7.38 1 2 cbr 1000 ------- 0 1.0 0.0 86 86
- 7.38 1 2 cbr 1000 ------- 0 1.0 0.0 86 86
r 7.388116 2 0 cbr 1000 ------- 0 1.0 0.0 86 86
h 7.46 1 2 cbr 1000 ------- 0 1.0 0.0 87 87
+ 7.46 1 2 cbr 1000 ------- 0 1.0 0.0 87 87
- 7.46 1 2 cbr 1000 ------- 0 1.0 0.0 87 87
r 7.468116 2 0 cbr 1000 ------- 0 1.0 0.0 87 87
h 7.54 1 2 cbr 1000 ------- 0 1.0 0.0 88 88
+ 7.54 1 2 cbr 1000 ------- 0 1.0 0.0 88 88
- 7.54 1 2 cbr 1000 ------- 0 1.0 0.0 88 88
r 7.548116 2 0 cbr 1000 ------- 0 1.0 0.0 88 88
h 7.62 1 2 cbr 1000 ------- 0 1.0 0.0 89 89
+ 7.62 1 2 cbr 1000 ------- 0 1.0 0.0 89 89
- 7.62 1 2 cbr 1000 ------- 0 1.0 0.0 89 89
r 7.628116 2 0 cbr 1000 ------- 0 1.0 0.0 89 89
h 7.7 1 2 cbr 1000 ------- 0 1.0 0.0 90 90
+ 7.7 1 2 cbr 1000 ------- 0 1.0 0.0 90 90
- 7.7 1 2 cbr 1000 ------- 0 1.0 0.0 90 90
r 7.708116 2 0 cbr 1000 ------- 0 1.0 0.0 90 90
h 7.78 1 2 cbr 1000 ------- 0 1.0 0.0 91 91
+ 7.78 1 2 cbr 1000 ------- 0 1.0 0.0 91 91
- 7.78 1 2 cbr 1000 ------- 0 1.0 0.0 91 91
r 7.788116 2 0 cbr 1000 ------- 0 1.0 0.0 91 91
h 7.86 1 2 cbr 1000 ------- 0 1.0 0.0 92 92
+ 7.86 1 2 cbr 1000 ------- 0 1.0 0.0 92 92
- 7.86 1 2 cbr 1000 ------- 0 1.0 0.0 92 92
r 7.868116 2 0 cbr 1000 ------- 0 1.0 0.0 92 92
h 7.94 1 2 cbr 1000 ------- 0 1.0 0.0 93 93
+ 7.94 1 2 cbr 1000 ------- 0 1.0 0.0 93 93
- 7.94 1 2 cbr 1000 ------- 0 1.0 0.0 93 93
r 7.948116 2 0 cbr 1000 ------- 0 1.0 0.0 93 93
h 8.02 1 2 cbr 1000 ------- 0 1.0 0.0 94 94
+ 8.02 1 2 cbr 1000 ------- 0 1.0 0.0 94 94
- 8.02 1 2 cbr 1000 ------- 0 1.0 0.0 94 94
r 8.028116 2 0 cbr 1000 ------- 0 1.0 0.0 94 94
h 8.1 1 2 cbr 1000 ------- 0 1.0 0.0 95 95
+ 8.1 1 2 cbr 1000 ------- 0 1.0 0.0 95 95
- 8.1 1 2 cbr 1000 ------- 0 1.0 0.0 95 95
r 8.108116 2 0 cbr 1000 ------- 0 1.0 0.0 95 95
h 8.18 1 2 cbr 1000 ------- 0 1.0 0.0 96 96
+ 8.18 1 2 cbr 1000 ------- 0 1.0 0.0 96 96
- 8.18 1 2 cbr 1000 ------- 0 1.0 0.0 96 96
r 8.188116 2 0 cbr 1000 ------- 0 1.0 0.0 96 96
h 8.26 1 2 cbr 1000 ------- 0 1.0 0.0 97 97
+ 8.26 1 2 cbr 1000 ------- 0 1.0 0.0 97 97
- 8.26 1 2 cbr 1000 ------- 0 1.0 0.0 97 97
r 8.268116 2 0 cbr 1000 ------- 0 1.0 0.0 97 97
h 8.34 1 2 cbr 1000 ------- 0 1.0 0.0 98 98
+ 8.34 1 2 cbr 1000 ------- 0 1.0 0.0 98 98
- 8.34 1 2 cbr 1000 ------- 0 1.0 0.0 98 98
r 8.348116 2 0 cbr 1000 ------- 0 1.0 0.0 98 98
h 8.42 1 2 cbr 1000 ------- 0 1.0 0.0 99 99
+ 8.42 1 2 cbr 1000 ------- 0 1.0 0.0 99 99
- 8.42 1 2 cbr 1000 ------- 0 1.0 0.0 99 99
r 8.428116 2 0 cbr 1000 ------- 0 1.0 0.0 99 99
h 8.5 1 2 cbr 1000 ------- 0 1.0 0.0 100 100
+ 8.5 1 2 cbr 1000 ------- 0 1.0 0.0 100 100
- 8.5 1 2 cbr 1000 ------- 0 1.0 0.0 100 100
r 8.508116 2 0 cbr 1000 ------- 0 1.0 0.0 100 100
h 8.58 1 2 cbr 1000 ------- 0 1.0 0.0 101 101
+ 8.58 1 2 cbr 1000 ------- 0 1.0 0.0 101 101
- 8.58 1 2 cbr 1000 ------- 0 1.0 0.0 101 101
r 8.588116 2 0 cbr 1000 ------- 0 1.0 0.0 101 101
h 8.66 1 2 cbr 1000 ------- 0 1.0 0.0 102 102
+ 8.66 1 2 cbr 1000 ------- 0 1.0 0.0 102 102
- 8.66 1 2 cbr 1000 ------- 0 1.0 0.0 102 102
r 8.668116 2 0 cbr 1000 ------- 0 1.0 0.0 102 102
h 8.74 1 2 cbr 1000 ------- 0 1.0 0.0 103 103
+ 8.74 1 2 cbr 1000 ------- 0 1.0 0.0 103 103
- 8.74 1 2 cbr 1000 ------- 0 1.0 0.0 103 103
r 8.748116 2 0 cbr 1000 ------- 0 1.0 0.0 103 103
h 8.82 1 2 cbr 1000 ------- 0 1.0 0.0 104 104
+ 8.82 1 2 cbr 1000 ------- 0 1.0 0.0 104 104
- 8.82 1 2 cbr 1000 ------- 0 1.0 0.0 104 104
r 8.828116 2 0 cbr 1000 ------- 0 1.0 0.0 104 104
h 8.9 1 2 cbr 1000 ------- 0 1.0 0.0 105 105
+ 8.9 1 2 cbr 1000 ------- 0 1.0 0.0 105 105
- 8.9 1 2 cbr 1000 ------- 0 1.0 0.0 105 105
r 8.908116 2 0 cbr 1000 ------- 0 1.0 0.0 105 105
h 8.98 1 2 cbr 1000 ------- 0 1.0 0.0 106 106
+ 8.98 1 2 cbr 1000 ------- 0 1.0 0.0 106 106
- 8.98 1 2 cbr 1000 ------- 0 1.0 0.0 106 106
r 8.988116 2 0 cbr 1000 ------- 0 1.0 0.0 106 106
h 9.06 1 2 cbr 1000 ------- 0 1.0 0.0 107 107
+ 9.06 1 2 cbr 1000 ------- 0 1.0 0.0 107 107
- 9.06 1 2 cbr 1000 ------- 0 1.0 0.0 107 107
r 9.068116 2 0 cbr 1000 ------- 0 1.0 0.0 107 107
h 9.14 1 2 cbr 1000 ------- 0 1.0 0.0 108 108
+ 9.14 1 2 cbr 1000 ------- 0 1.0 0.0 108 108
- 9.14 1 2 cbr 1000 ------- 0 1.0 0.0 108 108
r 9.148116 2 0 cbr 1000 ------- 0 1.0 0.0 108 108
h 9.22 1 2 cbr 1000 ------- 0 1.0 0.0 109 109
+ 9.22 1 2 cbr 1000 ------- 0 1.0 0.0 109 109
- 9.22 1 2 cbr 1000 ------- 0 1.0 0.0 109 109
r 9.228116 2 0 cbr 1000 ------- 0 1.0 0.0 109 109
h 9.3 1 2 cbr 1000 ------- 0 1.0 0.0 110 110
+ 9.3 1 2 cbr 1000 ------- 0 1.0 0.0 110 110
- 9.3 1 2 cbr 1000 ------- 0 1.0 0.0 110 110
r 9.308116 2 0 cbr 1000 ------- 0 1.0 0.0 110 110
h 9.38 1 2 cbr 1000 ------- 0 1.0 0.0 111 111
+ 9.38 1 2 cbr 1000 ------- 0 1.0 0.0 111 111
- 9.38 1 2 cbr 1000 ------- 0 1.0 0.0 111 111
r 9.388116 2 0 cbr 1000 ------- 0 1.0 0.0 111 111
h 9.46 1 2 cbr 1000 ------- 0 1.0 0.0 112 112
+ 9.46 1 2 cbr 1000 ------- 0 1.0 0.0 112 112
- 9.46 1 2 cbr 1000 ------- 0 1.0 0.0 112 112
r 9.468116 2 0 cbr 1000 ------- 0 1.0 0.0 112 112
h 9.54 1 2 cbr 1000 ------- 0 1.0 0.0 113 113
+ 9.54 1 2 cbr 1000 ------- 0 1.0 0.0 113 113
- 9.54 1 2 cbr 1000 ------- 0 1.0 0.0 113 113
r 9.548116 2 0 cbr 1000 ------- 0 1.0 0.0 113 113
h 9.62 1 2 cbr 1000 ------- 0 1.0 0.0 114 114
+ 9.62 1 2 cbr 1000 ------- 0 1.0 0.0 114 114
- 9.62 1 2 cbr 1000 ------- 0 1.0 0.0 114 114
r 9.628116 2 0 cbr 1000 ------- 0 1.0 0.0 114 114
h 9.7 1 2 cbr 1000 ------- 0 1.0 0.0 115 115
+ 9.7 1 2 cbr 1000 ------- 0 1.0 0.0 115 115
- 9.7 1 2 cbr 1000 ------- 0 1.0 0.0 115 115
r 9.708116 2 0 cbr 1000 ------- 0 1.0 0.0 115 115
h 9.78 1 2 cbr 1000 ------- 0 1.0 0.0 116 116
+ 9.78 1 2 cbr 1000 ------- 0 1.0 0.0 116 116
- 9.78 1 2 cbr 1000 ------- 0 1.0 0.0 116 116
r 9.788116 2 0 cbr 1000 ------- 0 1.0 0.0 116 116
h 9.86 1 2 cbr 1000 ------- 0 1.0 0.0 117 117
+ 9.86 1 2 cbr 1000 ------- 0 1.0 0.0 117 117
- 9.86 1 2 cbr 1000 ------- 0 1.0 0.0 117 117
r 9.868116 2 0 cbr 1000 ------- 0 1.0 0.0 117 117
h 9.94 1 2 cbr 1000 ------- 0 1.0 0.0 118 118
+ 9.94 1 2 cbr 1000 ------- 0 1.0 0.0 118 118
- 9.94 1 2 cbr 1000 ------- 0 1.0 0.0 118 118
r 9.948116 2 0 cbr 1000 ------- 0 1.0 0.0 118 118
h 10.02 1 2 cbr 1000 ------- 0 1.0 0.0 119 119
+ 10.02 1 2 cbr 1000 ------- 0 1.0 0.0 119 119
- 10.02 1 2 cbr 1000 ------- 0 1.0 0.0 119 119
r 10.028116 2 0 cbr 1000 ------- 0 1.0 0.0 119 119
h 10.1 1 2 cbr 1000 ------- 0 1.0 0.0 120 120
+ 10.1 1 2 cbr 1000 ------- 0 1.0 0.0 120 120
- 10.1 1 2 cbr 1000 ------- 0 1.0 0.0 120 120
r 10.108116 2 0 cbr 1000 ------- 0 1.0 0.0 120 120
h 10.18 1 2 cbr 1000 ------- 0 1.0 0.0 121 121
+ 10.18 1 2 cbr 1000 ------- 0 1.0 0.0 121 121
- 10.18 1 2 cbr 1000 ------- 0 1.0 0.0 121 121
r 10.188116 2 0 cbr 1000 ------- 0 1.0 0.0 121 121
h 10.26 1 2 cbr 1000 ------- 0 1.0 0.0 122 122
+ 10.26 1 2 cbr 1000 ------- 0 1.0 0.0 122 122
- 10.26 1 2 cbr 1000 ------- 0 1.0 0.0 122 122
r 10.268116 2 0 cbr 1000 ------- 0 1.0 0.0 122 122
h 10.34 1 2 cbr 1000 ------- 0 1.0 0.0 123 123
+ 10.34 1 2 cbr 1000 ------- 0 1.0 0.0 123 123
- 10.34 1 2 cbr 1000 ------- 0 1.0 0.0 123 123
r 10.348116 2 0 cbr 1000 ------- 0 1.0 0.0 123 123
h 10.42 1 2 cbr 1000 ------- 0 1.0 0.0 124 124
+ 10.42 1 2 cbr 1000 ------- 0 1.0 0.0 124 124
- 10.42 1 2 cbr 1000 ------- 0 1.0 0.0 124 124
r 10.428116 2 0 cbr 1000 ------- 0 1.0 0.0 124 124
