h 0.5 1 5 cbr 1000 ------- 0 1.0 0.0 0 0
h 0.5 2 5 cbr 1000 ------- 0 2.0 0.1 0 1
h 0.5 3 5 cbr 1000 ------- 0 3.0 0.2 0 2
h 0.5 4 5 cbr 1000 ------- 0 4.0 0.3 0 3
+ 0.5 1 5 cbr 1000 ------- 0 1.0 0.0 0 0
- 0.5 1 5 cbr 1000 ------- 0 1.0 0.0 0 0
+ 0.5 2 5 cbr 1000 ------- 0 2.0 0.1 0 1
- 0.5 2 5 cbr 1000 ------- 0 2.0 0.1 0 1
+ 0.5 3 5 cbr 1000 ------- 0 3.0 0.2 0 2
- 0.5 3 5 cbr 1000 ------- 0 3.0 0.2 0 2
+ 0.5 4 5 cbr 1000 ------- 0 4.0 0.3 0 3
- 0.5 4 5 cbr 1000 ------- 0 4.0 0.3 0 3
r 0.508248 5 0 cbr 1000 ------- 0 2.0 0.1 0 1
r 0.517748 5 0 cbr 1000 ------- 0 4.0 0.3 0 3
r 0.526604 5 0 cbr 1000 ------- 0 3.0 0.2 0 2
r 0.534816 5 0 cbr 1000 ------- 0 1.0 0.0 0 0
h 0.58 1 5 cbr 1000 ------- 0 1.0 0.0 1 4
h 0.58 2 5 cbr 1000 ------- 0 2.0 0.1 1 5
h 0.58 3 5 cbr 1000 ------- 0 3.0 0.2 1 6
h 0.58 4 5 cbr 1000 ------- 0 4.0 0.3 1 7
+ 0.58 1 5 cbr 1000 ------- 0 1.0 0.0 1 4
- 0.58 1 5 cbr 1000 ------- 0 1.0 0.0 1 4
+ 0.58 2 5 cbr 1000 ------- 0 2.0 0.1 1 5
- 0.58 2 5 cbr 1000 ------- 0 2.0 0.1 1 5
+ 0.58 3 5 cbr 1000 ------- 0 3.0 0.2 1 6
- 0.58 3 5 cbr 1000 ------- 0 3.0 0.2 1 6
+ 0.58 4 5 cbr 1000 ------- 0 4.0 0.3 1 7
- 0.58 4 5 cbr 1000 ------- 0 4.0 0.3 1 7
r 0.58838 5 0 cbr 1000 ------- 0 4.0 0.3 1 7
r 0.597748 5 0 cbr 1000 ------- 0 2.0 0.1 1 5
r 0.609676 5 0 cbr 1000 ------- 0 3.0 0.2 1 6
r 0.617888 5 0 cbr 1000 ------- 0 1.0 0.0 1 4
h 0.66 1 5 cbr 1000 ------- 0 1.0 0.0 2 8
h 0.66 2 5 cbr 1000 ------- 0 2.0 0.1 2 9
h 0.66 3 5 cbr 1000 ------- 0 3.0 0.2 2 10
h 0.66 4 5 cbr 1000 ------- 0 4.0 0.3 2 11
+ 0.66 1 5 cbr 1000 ------- 0 1.0 0.0 2 8
- 0.66 1 5 cbr 1000 ------- 0 1.0 0.0 2 8
+ 0.66 2 5 cbr 1000 ------- 0 2.0 0.1 2 9
- 0.66 2 5 cbr 1000 ------- 0 2.0 0.1 2 9
+ 0.66 3 5 cbr 1000 ------- 0 3.0 0.2 2 10
- 0.66 3 5 cbr 1000 ------- 0 3.0 0.2 2 10
+ 0.66 4 5 cbr 1000 ------- 0 4.0 0.3 2 11
- 0.66 4 5 cbr 1000 ------- 0 4.0 0.3 2 11
r 0.66838 5 0 cbr 1000 ------- 0 1.0 0.0 2 8
r 0.676724 5 0 cbr 1000 ------- 0 2.0 0.1 2 9
r 0.687628 5 0 cbr 1000 ------- 0 4.0 0.3 2 11
r 0.69584 5 0 cbr 1000 ------- 0 3.0 0.2 2 10
h 0.74 1 5 cbr 1000 ------- 0 1.0 0.0 3 12
h 0.74 2 5 cbr 1000 ------- 0 2.0 0.1 3 13
h 0.74 3 5 cbr 1000 ------- 0 3.0 0.2 3 14
h 0.74 4 5 cbr 1000 ------- 0 4.0 0.3 3 15
+ 0.74 1 5 cbr 1000 ------- 0 1.0 0.0 3 12
- 0.74 1 5 cbr 1000 ------- 0 1.0 0.0 3 12
+ 0.74 2 5 cbr 1000 ------- 0 2.0 0.1 3 13
- 0.74 2 5 cbr 1000 ------- 0 2.0 0.1 3 13
+ 0.74 3 5 cbr 1000 ------- 0 3.0 0.2 3 14
- 0.74 3 5 cbr 1000 ------- 0 3.0 0.2 3 14
+ 0.74 4 5 cbr 1000 ------- 0 4.0 0.3 3 15
- 0.74 4 5 cbr 1000 ------- 0 4.0 0.3 3 15
r 0.748892 5 0 cbr 1000 ------- 0 2.0 0.1 3 13
r 0.75788 5 0 cbr 1000 ------- 0 4.0 0.3 3 15
r 0.77032 5 0 cbr 1000 ------- 0 3.0 0.2 3 14
r 0.778532 5 0 cbr 1000 ------- 0 1.0 0.0 3 12
h 0.82 1 5 cbr 1000 ------- 0 1.0 0.0 4 16
h 0.82 2 5 cbr 1000 ------- 0 2.0 0.1 4 17
h 0.82 3 5 cbr 1000 ------- 0 3.0 0.2 4 18
h 0.82 4 5 cbr 1000 ------- 0 4.0 0.3 4 19
+ 0.82 1 5 cbr 1000 ------- 0 1.0 0.0 4 16
- 0.82 1 5 cbr 1000 ------- 0 1.0 0.0 4 16
+ 0.82 2 5 cbr 1000 ------- 0 2.0 0.1 4 17
- 0.82 2 5 cbr 1000 ------- 0 2.0 0.1 4 17
+ 0.82 3 5 cbr 1000 ------- 0 3.0 0.2 4 18
- 0.82 3 5 cbr 1000 ------- 0 3.0 0.2 4 18
+ 0.82 4 5 cbr 1000 ------- 0 4.0 0.3 4 19
- 0.82 4 5 cbr 1000 ------- 0 4.0 0.3 4 19
r 0.828248 5 0 cbr 1000 ------- 0 2.0 0.1 4 17
r 0.836592 5 0 cbr 1000 ------- 0 3.0 0.2 4 18
r 0.847496 5 0 cbr 1000 ------- 0 4.0 0.3 4 19
r 0.855708 5 0 cbr 1000 ------- 0 1.0 0.0 4 16
h 0.9 1 5 cbr 1000 ------- 0 1.0 0.0 5 20
h 0.9 2 5 cbr 1000 ------- 0 2.0 0.1 5 21
h 0.9 3 5 cbr 1000 ------- 0 3.0 0.2 5 22
h 0.9 4 5 cbr 1000 ------- 0 4.0 0.3 5 23
+ 0.9 1 5 cbr 1000 ------- 0 1.0 0.0 5 20
- 0.9 1 5 cbr 1000 ------- 0 1.0 0.0 5 20
+ 0.9 2 5 cbr 1000 ------- 0 2.0 0.1 5 21
- 0.9 2 5 cbr 1000 ------- 0 2.0 0.1 5 21
+ 0.9 3 5 cbr 1000 ------- 0 3.0 0.2 5 22
- 0.9 3 5 cbr 1000 ------- 0 3.0 0.2 5 22
+ 0.9 4 5 cbr 1000 ------- 0 4.0 0.3 5 23
- 0.9 4 5 cbr 1000 ------- 0 4.0 0.3 5 23
r 0.90876 5 0 cbr 1000 ------- 0 1.0 0.0 5 20
r 0.918128 5 0 cbr 1000 ------- 0 2.0 0.1 5 21
r 0.930056 5 0 cbr 1000 ------- 0 3.0 0.2 5 22
r 0.938268 5 0 cbr 1000 ------- 0 4.0 0.3 5 23
h 0.98 1 5 cbr 1000 ------- 0 1.0 0.0 6 24
h 0.98 2 5 cbr 1000 ------- 0 2.0 0.1 6 25
h 0.98 3 5 cbr 1000 ------- 0 3.0 0.2 6 26
h 0.98 4 5 cbr 1000 ------- 0 4.0 0.3 6 27
+ 0.98 1 5 cbr 1000 ------- 0 1.0 0.0 6 24
- 0.98 1 5 cbr 1000 ------- 0 1.0 0.0 6 24
+ 0.98 2 5 cbr 1000 ------- 0 2.0 0.1 6 25
- 0.98 2 5 cbr 1000 ------- 0 2.0 0.1 6 25
+ 0.98 3 5 cbr 1000 ------- 0 3.0 0.2 6 26
- 0.98 3 5 cbr 1000 ------- 0 3.0 0.2 6 26
+ 0.98 4 5 cbr 1000 ------- 0 4.0 0.3 6 27
- 0.98 4 5 cbr 1000 ------- 0 4.0 0.3 6 27
r 0.98838 5 0 cbr 1000 ------- 0 2.0 0.1 6 25
r 0.997236 5 0 cbr 1000 ------- 0 4.0 0.3 6 27
r 1.007116 5 0 cbr 1000 ------- 0 1.0 0.0 6 24
r 1.015328 5 0 cbr 1000 ------- 0 3.0 0.2 6 26
h 1.06 1 5 cbr 1000 ------- 0 1.0 0.0 7 28
h 1.06 2 5 cbr 1000 ------- 0 2.0 0.1 7 29
h 1.06 3 5 cbr 1000 ------- 0 3.0 0.2 7 30
h 1.06 4 5 cbr 1000 ------- 0 4.0 0.3 7 31
+ 1.06 1 5 cbr 1000 ------- 0 1.0 0.0 7 28
- 1.06 1 5 cbr 1000 ------- 0 1.0 0.0 7 28
+ 1.06 2 5 cbr 1000 ------- 0 2.0 0.1 7 29
- 1.06 2 5 cbr 1000 ------- 0 2.0 0.1 7 29
+ 1.06 3 5 cbr 1000 ------- 0 3.0 0.2 7 30
- 1.06 3 5 cbr 1000 ------- 0 3.0 0.2 7 30
+ 1.06 4 5 cbr 1000 ------- 0 4.0 0.3 7 31
- 1.06 4 5 cbr 1000 ------- 0 4.0 0.3 7 31
r 1.06876 5 0 cbr 1000 ------- 0 4.0 0.3 7 31
r 1.077104 5 0 cbr 1000 ------- 0 1.0 0.0 7 28
r 1.089032 5 0 cbr 1000 ------- 0 3.0 0.2 7 30
r 1.097244 5 0 cbr 1000 ------- 0 2.0 0.1 7 29
h 1.14 1 5 cbr 1000 ------- 0 1.0 0.0 8 32
h 1.14 2 5 cbr 1000 ------- 0 2.0 0.1 8 33
h 1.14 3 5 cbr 1000 ------- 0 3.0 0.2 8 34
h 1.14 4 5 cbr 1000 ------- 0 4.0 0.3 8 35
+ 1.14 1 5 cbr 1000 ------- 0 1.0 0.0 8 32
- 1.14 1 5 cbr 1000 ------- 0 1.0 0.0 8 32
+ 1.14 2 5 cbr 1000 ------- 0 2.0 0.1 8 33
- 1.14 2 5 cbr 1000 ------- 0 2.0 0.1 8 33
+ 1.14 3 5 cbr 1000 ------- 0 3.0 0.2 8 34
- 1.14 3 5 cbr 1000 ------- 0 3.0 0.2 8 34
+ 1.14 4 5 cbr 1000 ------- 0 4.0 0.3 8 35
- 1.14 4 5 cbr 1000 ------- 0 4.0 0.3 8 35
r 1.149536 5 0 cbr 1000 ------- 0 4.0 0.3 8 35
r 1.159416 5 0 cbr 1000 ------- 0 1.0 0.0 8 32
r 1.168784 5 0 cbr 1000 ------- 0 3.0 0.2 8 34
r 1.176996 5 0 cbr 1000 ------- 0 2.0 0.1 8 33
h 1.22 1 5 cbr 1000 ------- 0 1.0 0.0 9 36
h 1.22 2 5 cbr 1000 ------- 0 2.0 0.1 9 37
h 1.22 3 5 cbr 1000 ------- 0 3.0 0.2 9 38
h 1.22 4 5 cbr 1000 ------- 0 4.0 0.3 9 39
+ 1.22 1 5 cbr 1000 ------- 0 1.0 0.0 9 36
- 1.22 1 5 cbr 1000 ------- 0 1.0 0.0 9 36
+ 1.22 2 5 cbr 1000 ------- 0 2.0 0.1 9 37
- 1.22 2 5 cbr 1000 ------- 0 2.0 0.1 9 37
+ 1.22 3 5 cbr 1000 ------- 0 3.0 0.2 9 38
- 1.22 3 5 cbr 1000 ------- 0 3.0 0.2 9 38
+ 1.22 4 5 cbr 1000 ------- 0 4.0 0.3 9 39
- 1.22 4 5 cbr 1000 ------- 0 4.0 0.3 9 39
r 1.228892 5 0 cbr 1000 ------- 0 2.0 0.1 9 37
r 1.237236 5 0 cbr 1000 ------- 0 1.0 0.0 9 36
r 1.246092 5 0 cbr 1000 ------- 0 4.0 0.3 9 39
r 1.254304 5 0 cbr 1000 ------- 0 3.0 0.2 9 38
h 1.3 1 5 cbr 1000 ------- 0 1.0 0.0 10 40
h 1.3 2 5 cbr 1000 ------- 0 2.0 0.1 10 41
h 1.3 3 5 cbr 1000 ------- 0 3.0 0.2 10 42
h 1.3 4 5 cbr 1000 ------- 0 4.0 0.3 10 43
+ 1.3 1 5 cbr 1000 ------- 0 1.0 0.0 10 40
- 1.3 1 5 cbr 1000 ------- 0 1.0 0.0 10 40
+ 1.3 2 5 cbr 1000 ------- 0 2.0 0.1 10 41
- 1.3 2 5 cbr 1000 ------- 0 2.0 0.1 10 41
+ 1.3 3 5 cbr 1000 ------- 0 3.0 0.2 10 42
- 1.3 3 5 cbr 1000 ------- 0 3.0 0.2 10 42
+ 1.3 4 5 cbr 1000 ------- 0 4.0 0.3 10 43
- 1.3 4 5 cbr 1000 ------- 0 4.0 0.3 10 43
r 1.30838 5 0 cbr 1000 ------- 0 1.0 0.0 10 40
r 1.318392 5 0 cbr 1000 ------- 0 2.0 0.1 10 41
r 1.326736 5 0 cbr 1000 ------- 0 3.0 0.2 10 42
r 1.334948 5 0 cbr 1000 ------- 0 4.0 0.3 10 43
h 1.38 1 5 cbr 1000 ------- 0 1.0 0.0 11 44
h 1.38 2 5 cbr 1000 ------- 0 2.0 0.1 11 45
h 1.38 3 5 cbr 1000 ------- 0 3.0 0.2 11 46
h 1.38 4 5 cbr 1000 ------- 0 4.0 0.3 11 47
+ 1.38 1 5 cbr 1000 ------- 0 1.0 0.0 11 44
- 1.38 1 5 cbr 1000 ------- 0 1.0 0.0 11 44
+ 1.38 2 5 cbr 1000 ------- 0 2.0 0.1 11 45
- 1.38 2 5 cbr 1000 ------- 0 2.0 0.1 11 45
+ 1.38 3 5 cbr 1000 ------- 0 3.0 0.2 11 46
- 1.38 3 5 cbr 1000 ------- 0 3.0 0.2 11 46
+ 1.38 4 5 cbr 1000 ------- 0 4.0 0.3 11 47
- 1.38 4 5 cbr 1000 ------- 0 4.0 0.3 11 47
r 1.389404 5 0 cbr 1000 ------- 0 4.0 0.3 11 47
r 1.39826 5 0 cbr 1000 ------- 0 3.0 0.2 11 46
r 1.420048 5 0 cbr 1000 ------- 0 2.0 0.1 11 45
r 1.42826 5 0 cbr 1000 ------- 0 1.0 0.0 11 44
h 1.46 1 5 cbr 1000 ------- 0 1.0 0.0 12 48
h 1.46 2 5 cbr 1000 ------- 0 2.0 0.1 12 49
h 1.46 3 5 cbr 1000 ------- 0 3.0 0.2 12 50
h 1.46 4 5 cbr 1000 ------- 0 4.0 0.3 12 51
+ 1.46 1 5 cbr 1000 ------- 0 1.0 0.0 12 48
- 1.46 1 5 cbr 1000 ------- 0 1.0 0.0 12 48
+ 1.46 2 5 cbr 1000 ------- 0 2.0 0.1 12 49
- 1.46 2 5 cbr 1000 ------- 0 2.0 0.1 12 49
+ 1.46 3 5 cbr 1000 ------- 0 3.0 0.2 12 50
- 1.46 3 5 cbr 1000 ------- 0 3.0 0.2 12 50
+ 1.46 4 5 cbr 1000 ------- 0 4.0 0.3 12 51
- 1.46 4 5 cbr 1000 ------- 0 4.0 0.3 12 51
r 1.46838 5 0 cbr 1000 ------- 0 4.0 0.3 12 51
r 1.477748 5 0 cbr 1000 ------- 0 3.0 0.2 12 50
r 1.487116 5 0 cbr 1000 ------- 0 1.0 0.0 12 48
r 1.495328 5 0 cbr 1000 ------- 0 2.0 0.1 12 49
h 1.54 1 5 cbr 1000 ------- 0 1.0 0.0 13 52
h 1.54 2 5 cbr 1000 ------- 0 2.0 0.1 13 53
h 1.54 3 5 cbr 1000 ------- 0 3.0 0.2 13 54
h 1.54 4 5 cbr 1000 ------- 0 4.0 0.3 13 55
+ 1.54 1 5 cbr 1000 ------- 0 1.0 0.0 13 52
- 1.54 1 5 cbr 1000 ------- 0 1.0 0.0 13 52
+ 1.54 2 5 cbr 1000 ------- 0 2.0 0.1 13 53
- 1.54 2 5 cbr 1000 ------- 0 2.0 0.1 13 53
+ 1.54 3 5 cbr 1000 ------- 0 3.0 0.2 13 54
- 1.54 3 5 cbr 1000 ------- 0 3.0 0.2 13 54
+ 1.54 4 5 cbr 1000 ------- 0 4.0 0.3 13 55
- 1.54 4 5 cbr 1000 ------- 0 4.0 0.3 13 55
r 1.548248 5 0 cbr 1000 ------- 0 1.0 0.0 13 52
r 1.557104 5 0 cbr 1000 ------- 0 4.0 0.3 13 55
r 1.567496 5 0 cbr 1000 ------- 0 3.0 0.2 13 54
r 1.575708 5 0 cbr 1000 ------- 0 2.0 0.1 13 53
h 1.62 1 5 cbr 1000 ------- 0 1.0 0.0 14 56
h 1.62 2 5 cbr 1000 ------- 0 2.0 0.1 14 57
h 1.62 3 5 cbr 1000 ------- 0 3.0 0.2 14 58
h 1.62 4 5 cbr 1000 ------- 0 4.0 0.3 14 59
+ 1.62 1 5 cbr 1000 ------- 0 1.0 0.0 14 56
- 1.62 1 5 cbr 1000 ------- 0 1.0 0.0 14 56
+ 1.62 2 5 cbr 1000 ------- 0 2.0 0.1 14 57
- 1.62 2 5 cbr 1000 ------- 0 2.0 0.1 14 57
+ 1.62 3 5 cbr 1000 ------- 0 3.0 0.2 14 58
- 1.62 3 5 cbr 1000 ------- 0 3.0 0.2 14 58
+ 1.62 4 5 cbr 1000 ------- 0 4.0 0.3 14 59
- 1.62 4 5 cbr 1000 ------- 0 4.0 0.3 14 59
r 1.628892 5 0 cbr 1000 ------- 0 1.0 0.0 14 56
r 1.638772 5 0 cbr 1000 ------- 0 4.0 0.3 14 59
r 1.650188 5 0 cbr 1000 ------- 0 3.0 0.2 14 58
r 1.6584 5 0 cbr 1000 ------- 0 2.0 0.1 14 57
h 1.7 1 5 cbr 1000 ------- 0 1.0 0.0 15 60
h 1.7 2 5 cbr 1000 ------- 0 2.0 0.1 15 61
h 1.7 3 5 cbr 1000 ------- 0 3.0 0.2 15 62
h 1.7 4 5 cbr 1000 ------- 0 4.0 0.3 15 63
+ 1.7 1 5 cbr 1000 ------- 0 1.0 0.0 15 60
- 1.7 1 5 cbr 1000 ------- 0 1.0 0.0 15 60
+ 1.7 2 5 cbr 1000 ------- 0 2.0 0.1 15 61
- 1.7 2 5 cbr 1000 ------- 0 2.0 0.1 15 61
+ 1.7 3 5 cbr 1000 ------- 0 3.0 0.2 15 62
- 1.7 3 5 cbr 1000 ------- 0 3.0 0.2 15 62
+ 1.7 4 5 cbr 1000 ------- 0 4.0 0.3 15 63
- 1.7 4 5 cbr 1000 ------- 0 4.0 0.3 15 63
r 1.71236 5 0 cbr 1000 ------- 0 1.0 0.0 15 60
r 1.725824 5 0 cbr 1000 ------- 0 2.0 0.1 15 61
r 1.734036 5 0 cbr 1000 ------- 0 4.0 0.3 15 63
r 1.743232 5 0 cbr 1000 ------- 0 3.0 0.2 15 62
h 1.78 1 5 cbr 1000 ------- 0 1.0 0.0 16 64
h 1.78 2 5 cbr 1000 ------- 0 2.0 0.1 16 65
h 1.78 3 5 cbr 1000 ------- 0 3.0 0.2 16 66
h 1.78 4 5 cbr 1000 ------- 0 4.0 0.3 16 67
+ 1.78 1 5 cbr 1000 ------- 0 1.0 0.0 16 64
- 1.78 1 5 cbr 1000 ------- 0 1.0 0.0 16 64
+ 1.78 2 5 cbr 1000 ------- 0 2.0 0.1 16 65
- 1.78 2 5 cbr 1000 ------- 0 2.0 0.1 16 65
+ 1.78 3 5 cbr 1000 ------- 0 3.0 0.2 16 66
- 1.78 3 5 cbr 1000 ------- 0 3.0 0.2 16 66
+ 1.78 4 5 cbr 1000 ------- 0 4.0 0.3 16 67
- 1.78 4 5 cbr 1000 ------- 0 4.0 0.3 16 67
r 1.78876 5 0 cbr 1000 ------- 0 2.0 0.1 16 65
r 1.799152 5 0 cbr 1000 ------- 0 3.0 0.2 16 66
r 1.80852 5 0 cbr 1000 ------- 0 1.0 0.0 16 64
r 1.816732 5 0 cbr 1000 ------- 0 4.0 0.3 16 67
h 1.86 1 5 cbr 1000 ------- 0 1.0 0.0 17 68
h 1.86 2 5 cbr 1000 ------- 0 2.0 0.1 17 69
h 1.86 3 5 cbr 1000 ------- 0 3.0 0.2 17 70
h 1.86 4 5 cbr 1000 ------- 0 4.0 0.3 17 71
+ 1.86 1 5 cbr 1000 ------- 0 1.0 0.0 17 68
- 1.86 1 5 cbr 1000 ------- 0 1.0 0.0 17 68
+ 1.86 2 5 cbr 1000 ------- 0 2.0 0.1 17 69
- 1.86 2 5 cbr 1000 ------- 0 2.0 0.1 17 69
+ 1.86 3 5 cbr 1000 ------- 0 3.0 0.2 17 70
- 1.86 3 5 cbr 1000 ------- 0 3.0 0.2 17 70
+ 1.86 4 5 cbr 1000 ------- 0 4.0 0.3 17 71
- 1.86 4 5 cbr 1000 ------- 0 4.0 0.3 17 71
r 1.868248 5 0 cbr 1000 ------- 0 3.0 0.2 17 70
r 1.877104 5 0 cbr 1000 ------- 0 2.0 0.1 17 69
r 1.885448 5 0 cbr 1000 ------- 0 1.0 0.0 17 68
r 1.89366 5 0 cbr 1000 ------- 0 4.0 0.3 17 71
h 1.94 1 5 cbr 1000 ------- 0 1.0 0.0 18 72
h 1.94 2 5 cbr 1000 ------- 0 2.0 0.1 18 73
h 1.94 3 5 cbr 1000 ------- 0 3.0 0.2 18 74
h 1.94 4 5 cbr 1000 ------- 0 4.0 0.3 18 75
+ 1.94 1 5 cbr 1000 ------- 0 1.0 0.0 18 72
- 1.94 1 5 cbr 1000 ------- 0 1.0 0.0 18 72
+ 1.94 2 5 cbr 1000 ------- 0 2.0 0.1 18 73
- 1.94 2 5 cbr 1000 ------- 0 2.0 0.1 18 73
+ 1.94 3 5 cbr 1000 ------- 0 3.0 0.2 18 74
- 1.94 3 5 cbr 1000 ------- 0 3.0 0.2 18 74
+ 1.94 4 5 cbr 1000 ------- 0 4.0 0.3 18 75
- 1.94 4 5 cbr 1000 ------- 0 4.0 0.3 18 75
r 1.95056 5 0 cbr 1000 ------- 0 2.0 0.1 18 73
r 1.961464 5 0 cbr 1000 ------- 0 4.0 0.3 18 75
r 1.975952 5 0 cbr 1000 ------- 0 3.0 0.2 18 74
r 1.984164 5 0 cbr 1000 ------- 0 1.0 0.0 18 72
h 2.02 1 5 cbr 1000 ------- 0 1.0 0.0 19 76
h 2.02 2 5 cbr 1000 ------- 0 2.0 0.1 19 77
h 2.02 3 5 cbr 1000 ------- 0 3.0 0.2 19 78
h 2.02 4 5 cbr 1000 ------- 0 4.0 0.3 19 79
+ 2.02 1 5 cbr 1000 ------- 0 1.0 0.0 19 76
- 2.02 1 5 cbr 1000 ------- 0 1.0 0.0 19 76
+ 2.02 2 5 cbr 1000 ------- 0 2.0 0.1 19 77
- 2.02 2 5 cbr 1000 ------- 0 2.0 0.1 19 77
+ 2.02 3 5 cbr 1000 ------- 0 3.0 0.2 19 78
- 2.02 3 5 cbr 1000 ------- 0 3.0 0.2 19 78
+ 2.02 4 5 cbr 1000 ------- 0 4.0 0.3 19 79
- 2.02 4 5 cbr 1000 ------- 0 4.0 0.3 19 79
r 2.02876 5 0 cbr 1000 ------- 0 3.0 0.2 19 78
r 2.037616 5 0 cbr 1000 ------- 0 1.0 0.0 19 76
r 2.050568 5 0 cbr 1000 ------- 0 4.0 0.3 19 79
r 2.05878 5 0 cbr 1000 ------- 0 2.0 0.1 19 77
h 2.1 1 5 cbr 1000 ------- 0 1.0 0.0 20 80
h 2.1 2 5 cbr 1000 ------- 0 2.0 0.1 20 81
h 2.1 3 5 cbr 1000 ------- 0 3.0 0.2 20 82
h 2.1 4 5 cbr 1000 ------- 0 4.0 0.3 20 83
+ 2.1 1 5 cbr 1000 ------- 0 1.0 0.0 20 80
- 2.1 1 5 cbr 1000 ------- 0 1.0 0.0 20 80
+ 2.1 2 5 cbr 1000 ------- 0 2.0 0.1 20 81
- 2.1 2 5 cbr 1000 ------- 0 2.0 0.1 20 81
+ 2.1 3 5 cbr 1000 ------- 0 3.0 0.2 20 82
- 2.1 3 5 cbr 1000 ------- 0 3.0 0.2 20 82
+ 2.1 4 5 cbr 1000 ------- 0 4.0 0.3 20 83
- 2.1 4 5 cbr 1000 ------- 0 4.0 0.3 20 83
r 2.108892 5 0 cbr 1000 ------- 0 2.0 0.1 20 81
r 2.117748 5 0 cbr 1000 ------- 0 1.0 0.0 20 80
r 2.128652 5 0 cbr 1000 ------- 0 4.0 0.3 20 83
r 2.136864 5 0 cbr 1000 ------- 0 3.0 0.2 20 82
h 2.18 1 5 cbr 1000 ------- 0 1.0 0.0 21 84
h 2.18 2 5 cbr 1000 ------- 0 2.0 0.1 21 85
h 2.18 3 5 cbr 1000 ------- 0 3.0 0.2 21 86
h 2.18 4 5 cbr 1000 ------- 0 4.0 0.3 21 87
+ 2.18 1 5 cbr 1000 ------- 0 1.0 0.0 21 84
- 2.18 1 5 cbr 1000 ------- 0 1.0 0.0 21 84
+ 2.18 2 5 cbr 1000 ------- 0 2.0 0.1 21 85
- 2.18 2 5 cbr 1000 ------- 0 2.0 0.1 21 85
+ 2.18 3 5 cbr 1000 ------- 0 3.0 0.2 21 86
- 2.18 3 5 cbr 1000 ------- 0 3.0 0.2 21 86
+ 2.18 4 5 cbr 1000 ------- 0 4.0 0.3 21 87
- 2.18 4 5 cbr 1000 ------- 0 4.0 0.3 21 87
r 2.189536 5 0 cbr 1000 ------- 0 3.0 0.2 21 86
r 2.201464 5 0 cbr 1000 ------- 0 2.0 0.1 21 85
r 2.221072 5 0 cbr 1000 ------- 0 4.0 0.3 21 87
r 2.229284 5 0 cbr 1000 ------- 0 1.0 0.0 21 84
h 2.26 1 5 cbr 1000 ------- 0 1.0 0.0 22 88
h 2.26 2 5 cbr 1000 ------- 0 2.0 0.1 22 89
h 2.26 3 5 cbr 1000 ------- 0 3.0 0.2 22 90
h 2.26 4 5 cbr 1000 ------- 0 4.0 0.3 22 91
+ 2.26 1 5 cbr 1000 ------- 0 1.0 0.0 22 88
- 2.26 1 5 cbr 1000 ------- 0 1.0 0.0 22 88
+ 2.26 2 5 cbr 1000 ------- 0 2.0 0.1 22 89
- 2.26 2 5 cbr 1000 ------- 0 2.0 0.1 22 89
+ 2.26 3 5 cbr 1000 ------- 0 3.0 0.2 22 90
- 2.26 3 5 cbr 1000 ------- 0 3.0 0.2 22 90
+ 2.26 4 5 cbr 1000 ------- 0 4.0 0.3 22 91
- 2.26 4 5 cbr 1000 ------- 0 4.0 0.3 22 91
r 2.26838 5 0 cbr 1000 ------- 0 2.0 0.1 22 89
r 2.277236 5 0 cbr 1000 ------- 0 1.0 0.0 22 88
r 2.303632 5 0 cbr 1000 ------- 0 4.0 0.3 22 91
r 2.311844 5 0 cbr 1000 ------- 0 3.0 0.2 22 90
h 2.34 1 5 cbr 1000 ------- 0 1.0 0.0 23 92
h 2.34 2 5 cbr 1000 ------- 0 2.0 0.1 23 93
h 2.34 3 5 cbr 1000 ------- 0 3.0 0.2 23 94
h 2.34 4 5 cbr 1000 ------- 0 4.0 0.3 23 95
+ 2.34 1 5 cbr 1000 ------- 0 1.0 0.0 23 92
- 2.34 1 5 cbr 1000 ------- 0 1.0 0.0 23 92
+ 2.34 2 5 cbr 1000 ------- 0 2.0 0.1 23 93
- 2.34 2 5 cbr 1000 ------- 0 2.0 0.1 23 93
+ 2.34 3 5 cbr 1000 ------- 0 3.0 0.2 23 94
- 2.34 3 5 cbr 1000 ------- 0 3.0 0.2 23 94
+ 2.34 4 5 cbr 1000 ------- 0 4.0 0.3 23 95
- 2.34 4 5 cbr 1000 ------- 0 4.0 0.3 23 95
r 2.348892 5 0 cbr 1000 ------- 0 4.0 0.3 23 95
r 2.357236 5 0 cbr 1000 ------- 0 1.0 0.0 23 92
r 2.36776 5 0 cbr 1000 ------- 0 2.0 0.1 23 93
r 2.375972 5 0 cbr 1000 ------- 0 3.0 0.2 23 94
h 2.42 1 5 cbr 1000 ------- 0 1.0 0.0 24 96
h 2.42 2 5 cbr 1000 ------- 0 2.0 0.1 24 97
h 2.42 3 5 cbr 1000 ------- 0 3.0 0.2 24 98
h 2.42 4 5 cbr 1000 ------- 0 4.0 0.3 24 99
+ 2.42 1 5 cbr 1000 ------- 0 1.0 0.0 24 96
- 2.42 1 5 cbr 1000 ------- 0 1.0 0.0 24 96
+ 2.42 2 5 cbr 1000 ------- 0 2.0 0.1 24 97
- 2.42 2 5 cbr 1000 ------- 0 2.0 0.1 24 97
+ 2.42 3 5 cbr 1000 ------- 0 3.0 0.2 24 98
- 2.42 3 5 cbr 1000 ------- 0 3.0 0.2 24 98
+ 2.42 4 5 cbr 1000 ------- 0 4.0 0.3 24 99
- 2.42 4 5 cbr 1000 ------- 0 4.0 0.3 24 99
r 2.428892 5 0 cbr 1000 ------- 0 3.0 0.2 24 98
r 2.438772 5 0 cbr 1000 ------- 0 2.0 0.1 24 97
r 2.447628 5 0 cbr 1000 ------- 0 4.0 0.3 24 99
r 2.45584 5 0 cbr 1000 ------- 0 1.0 0.0 24 96
h 2.5 1 5 cbr 1000 ------- 0 1.0 0.0 25 100
h 2.5 2 5 cbr 1000 ------- 0 2.0 0.1 25 101
h 2.5 3 5 cbr 1000 ------- 0 3.0 0.2 25 102
h 2.5 4 5 cbr 1000 ------- 0 4.0 0.3 25 103
+ 2.5 1 5 cbr 1000 ------- 0 1.0 0.0 25 100
- 2.5 1 5 cbr 1000 ------- 0 1.0 0.0 25 100
+ 2.5 2 5 cbr 1000 ------- 0 2.0 0.1 25 101
- 2.5 2 5 cbr 1000 ------- 0 2.0 0.1 25 101
+ 2.5 3 5 cbr 1000 ------- 0 3.0 0.2 25 102
- 2.5 3 5 cbr 1000 ------- 0 3.0 0.2 25 102
+ 2.5 4 5 cbr 1000 ------- 0 4.0 0.3 25 103
- 2.5 4 5 cbr 1000 ------- 0 4.0 0.3 25 103
r 2.50838 5 0 cbr 1000 ------- 0 2.0 0.1 25 101
r 2.517748 5 0 cbr 1000 ------- 0 3.0 0.2 25 102
r 2.52814 5 0 cbr 1000 ------- 0 4.0 0.3 25 103
r 2.536352 5 0 cbr 1000 ------- 0 1.0 0.0 25 100
h 2.58 1 5 cbr 1000 ------- 0 1.0 0.0 26 104
h 2.58 2 5 cbr 1000 ------- 0 2.0 0.1 26 105
h 2.58 3 5 cbr 1000 ------- 0 3.0 0.2 26 106
h 2.58 4 5 cbr 1000 ------- 0 4.0 0.3 26 107
+ 2.58 1 5 cbr 1000 ------- 0 1.0 0.0 26 104
- 2.58 1 5 cbr 1000 ------- 0 1.0 0.0 26 104
+ 2.58 2 5 cbr 1000 ------- 0 2.0 0.1 26 105
- 2.58 2 5 cbr 1000 ------- 0 2.0 0.1 26 105
+ 2.58 3 5 cbr 1000 ------- 0 3.0 0.2 26 106
- 2.58 3 5 cbr 1000 ------- 0 3.0 0.2 26 106
+ 2.58 4 5 cbr 1000 ------- 0 4.0 0.3 26 107
- 2.58 4 5 cbr 1000 ------- 0 4.0 0.3 26 107
r 2.589024 5 0 cbr 1000 ------- 0 1.0 0.0 26 104
r 2.597368 5 0 cbr 1000 ------- 0 3.0 0.2 26 106
r 2.60776 5 0 cbr 1000 ------- 0 4.0 0.3 26 107
r 2.615972 5 0 cbr 1000 ------- 0 2.0 0.1 26 105
h 2.66 1 5 cbr 1000 ------- 0 1.0 0.0 27 108
h 2.66 2 5 cbr 1000 ------- 0 2.0 0.1 27 109
h 2.66 3 5 cbr 1000 ------- 0 3.0 0.2 27 110
h 2.66 4 5 cbr 1000 ------- 0 4.0 0.3 27 111
+ 2.66 1 5 cbr 1000 ------- 0 1.0 0.0 27 108
- 2.66 1 5 cbr 1000 ------- 0 1.0 0.0 27 108
+ 2.66 2 5 cbr 1000 ------- 0 2.0 0.1 27 109
- 2.66 2 5 cbr 1000 ------- 0 2.0 0.1 27 109
+ 2.66 3 5 cbr 1000 ------- 0 3.0 0.2 27 110
- 2.66 3 5 cbr 1000 ------- 0 3.0 0.2 27 110
+ 2.66 4 5 cbr 1000 ------- 0 4.0 0.3 27 111
- 2.66 4 5 cbr 1000 ------- 0 4.0 0.3 27 111
r 2.66838 5 0 cbr 1000 ------- 0 2.0 0.1 27 109
r 2.676724 5 0 cbr 1000 ------- 0 4.0 0.3 27 111
r 2.689808 5 0 cbr 1000 ------- 0 3.0 0.2 27 110
r 2.69802 5 0 cbr 1000 ------- 0 1.0 0.0 27 108
h 2.74 1 5 cbr 1000 ------- 0 1.0 0.0 28 112
h 2.74 2 5 cbr 1000 ------- 0 2.0 0.1 28 113
h 2.74 3 5 cbr 1000 ------- 0 3.0 0.2 28 114
h 2.74 4 5 cbr 1000 ------- 0 4.0 0.3 28 115
+ 2.74 1 5 cbr 1000 ------- 0 1.0 0.0 28 112
- 2.74 1 5 cbr 1000 ------- 0 1.0 0.0 28 112
+ 2.74 2 5 cbr 1000 ------- 0 2.0 0.1 28 113
- 2.74 2 5 cbr 1000 ------- 0 2.0 0.1 28 113
+ 2.74 3 5 cbr 1000 ------- 0 3.0 0.2 28 114
- 2.74 3 5 cbr 1000 ------- 0 3.0 0.2 28 114
+ 2.74 4 5 cbr 1000 ------- 0 4.0 0.3 28 115
- 2.74 4 5 cbr 1000 ------- 0 4.0 0.3 28 115
r 2.752608 5 0 cbr 1000 ------- 0 3.0 0.2 28 114
r 2.761976 5 0 cbr 1000 ------- 0 2.0 0.1 28 113
r 2.77032 5 0 cbr 1000 ------- 0 4.0 0.3 28 115
r 2.778532 5 0 cbr 1000 ------- 0 1.0 0.0 28 112
h 2.82 1 5 cbr 1000 ------- 0 1.0 0.0 29 116
h 2.82 2 5 cbr 1000 ------- 0 2.0 0.1 29 117
h 2.82 3 5 cbr 1000 ------- 0 3.0 0.2 29 118
h 2.82 4 5 cbr 1000 ------- 0 4.0 0.3 29 119
+ 2.82 1 5 cbr 1000 ------- 0 1.0 0.0 29 116
- 2.82 1 5 cbr 1000 ------- 0 1.0 0.0 29 116
+ 2.82 2 5 cbr 1000 ------- 0 2.0 0.1 29 117
- 2.82 2 5 cbr 1000 ------- 0 2.0 0.1 29 117
+ 2.82 3 5 cbr 1000 ------- 0 3.0 0.2 29 118
- 2.82 3 5 cbr 1000 ------- 0 3.0 0.2 29 118
+ 2.82 4 5 cbr 1000 ------- 0 4.0 0.3 29 119
- 2.82 4 5 cbr 1000 ------- 0 4.0 0.3 29 119
r 2.82838 5 0 cbr 1000 ------- 0 1.0 0.0 29 116
r 2.836724 5 0 cbr 1000 ------- 0 2.0 0.1 29 117
r 2.84558 5 0 cbr 1000 ------- 0 4.0 0.3 29 119
r 2.853792 5 0 cbr 1000 ------- 0 3.0 0.2 29 118
h 2.9 1 5 cbr 1000 ------- 0 1.0 0.0 30 120
h 2.9 2 5 cbr 1000 ------- 0 2.0 0.1 30 121
h 2.9 3 5 cbr 1000 ------- 0 3.0 0.2 30 122
h 2.9 4 5 cbr 1000 ------- 0 4.0 0.3 30 123
+ 2.9 1 5 cbr 1000 ------- 0 1.0 0.0 30 120
- 2.9 1 5 cbr 1000 ------- 0 1.0 0.0 30 120
+ 2.9 2 5 cbr 1000 ------- 0 2.0 0.1 30 121
- 2.9 2 5 cbr 1000 ------- 0 2.0 0.1 30 121
+ 2.9 3 5 cbr 1000 ------- 0 3.0 0.2 30 122
- 2.9 3 5 cbr 1000 ------- 0 3.0 0.2 30 122
+ 2.9 4 5 cbr 1000 ------- 0 4.0 0.3 30 123
- 2.9 4 5 cbr 1000 ------- 0 4.0 0.3 30 123
r 2.909404 5 0 cbr 1000 ------- 0 3.0 0.2 30 122
r 2.91826 5 0 cbr 1000 ------- 0 4.0 0.3 30 123
r 2.937868 5 0 cbr 1000 ------- 0 2.0 0.1 30 121
r 2.94608 5 0 cbr 1000 ------- 0 1.0 0.0 30 120
h 2.98 1 5 cbr 1000 ------- 0 1.0 0.0 31 124
h 2.98 2 5 cbr 1000 ------- 0 2.0 0.1 31 125
h 2.98 3 5 cbr 1000 ------- 0 3.0 0.2 31 126
h 2.98 4 5 cbr 1000 ------- 0 4.0 0.3 31 127
+ 2.98 1 5 cbr 1000 ------- 0 1.0 0.0 31 124
- 2.98 1 5 cbr 1000 ------- 0 1.0 0.0 31 124
+ 2.98 2 5 cbr 1000 ------- 0 2.0 0.1 31 125
- 2.98 2 5 cbr 1000 ------- 0 2.0 0.1 31 125
+ 2.98 3 5 cbr 1000 ------- 0 3.0 0.2 31 126
- 2.98 3 5 cbr 1000 ------- 0 3.0 0.2 31 126
+ 2.98 4 5 cbr 1000 ------- 0 4.0 0.3 31 127
- 2.98 4 5 cbr 1000 ------- 0 4.0 0.3 31 127
r 2.98838 5 0 cbr 1000 ------- 0 1.0 0.0 31 124
r 2.99826 5 0 cbr 1000 ------- 0 4.0 0.3 31 127
r 3.0107 5 0 cbr 1000 ------- 0 3.0 0.2 31 126
r 3.018912 5 0 cbr 1000 ------- 0 2.0 0.1 31 125
h 3.06 1 5 cbr 1000 ------- 0 1.0 0.0 32 128
h 3.06 2 5 cbr 1000 ------- 0 2.0 0.1 32 129
h 3.06 3 5 cbr 1000 ------- 0 3.0 0.2 32 130
h 3.06 4 5 cbr 1000 ------- 0 4.0 0.3 32 131
+ 3.06 1 5 cbr 1000 ------- 0 1.0 0.0 32 128
- 3.06 1 5 cbr 1000 ------- 0 1.0 0.0 32 128
+ 3.06 2 5 cbr 1000 ------- 0 2.0 0.1 32 129
- 3.06 2 5 cbr 1000 ------- 0 2.0 0.1 32 129
+ 3.06 3 5 cbr 1000 ------- 0 3.0 0.2 32 130
- 3.06 3 5 cbr 1000 ------- 0 3.0 0.2 32 130
+ 3.06 4 5 cbr 1000 ------- 0 4.0 0.3 32 131
- 3.06 4 5 cbr 1000 ------- 0 4.0 0.3 32 131
r 3.06838 5 0 cbr 1000 ------- 0 2.0 0.1 32 129
r 3.076724 5 0 cbr 1000 ------- 0 4.0 0.3 32 131
r 3.099024 5 0 cbr 1000 ------- 0 1.0 0.0 32 128
r 3.107236 5 0 cbr 1000 ------- 0 3.0 0.2 32 130
h 3.14 1 5 cbr 1000 ------- 0 1.0 0.0 33 132
h 3.14 2 5 cbr 1000 ------- 0 2.0 0.1 33 133
h 3.14 3 5 cbr 1000 ------- 0 3.0 0.2 33 134
h 3.14 4 5 cbr 1000 ------- 0 4.0 0.3 33 135
+ 3.14 1 5 cbr 1000 ------- 0 1.0 0.0 33 132
- 3.14 1 5 cbr 1000 ------- 0 1.0 0.0 33 132
+ 3.14 2 5 cbr 1000 ------- 0 2.0 0.1 33 133
- 3.14 2 5 cbr 1000 ------- 0 2.0 0.1 33 133
+ 3.14 3 5 cbr 1000 ------- 0 3.0 0.2 33 134
- 3.14 3 5 cbr 1000 ------- 0 3.0 0.2 33 134
+ 3.14 4 5 cbr 1000 ------- 0 4.0 0.3 33 135
- 3.14 4 5 cbr 1000 ------- 0 4.0 0.3 33 135
r 3.14838 5 0 cbr 1000 ------- 0 1.0 0.0 33 132
r 3.156724 5 0 cbr 1000 ------- 0 2.0 0.1 33 133
r 3.16558 5 0 cbr 1000 ------- 0 4.0 0.3 33 135
r 3.173792 5 0 cbr 1000 ------- 0 3.0 0.2 33 134
h 3.22 1 5 cbr 1000 ------- 0 1.0 0.0 34 136
h 3.22 2 5 cbr 1000 ------- 0 2.0 0.1 34 137
h 3.22 3 5 cbr 1000 ------- 0 3.0 0.2 34 138
h 3.22 4 5 cbr 1000 ------- 0 4.0 0.3 34 139
+ 3.22 1 5 cbr 1000 ------- 0 1.0 0.0 34 136
- 3.22 1 5 cbr 1000 ------- 0 1.0 0.0 34 136
+ 3.22 2 5 cbr 1000 ------- 0 2.0 0.1 34 137
- 3.22 2 5 cbr 1000 ------- 0 2.0 0.1 34 137
+ 3.22 3 5 cbr 1000 ------- 0 3.0 0.2 34 138
- 3.22 3 5 cbr 1000 ------- 0 3.0 0.2 34 138
+ 3.22 4 5 cbr 1000 ------- 0 4.0 0.3 34 139
- 3.22 4 5 cbr 1000 ------- 0 4.0 0.3 34 139
r 3.22838 5 0 cbr 1000 ------- 0 4.0 0.3 34 139
r 3.237236 5 0 cbr 1000 ------- 0 3.0 0.2 34 138
r 3.24558 5 0 cbr 1000 ------- 0 2.0 0.1 34 137
r 3.253792 5 0 cbr 1000 ------- 0 1.0 0.0 34 136
h 3.3 1 5 cbr 1000 ------- 0 1.0 0.0 35 140
h 3.3 2 5 cbr 1000 ------- 0 2.0 0.1 35 141
h 3.3 3 5 cbr 1000 ------- 0 3.0 0.2 35 142
h 3.3 4 5 cbr 1000 ------- 0 4.0 0.3 35 143
+ 3.3 1 5 cbr 1000 ------- 0 1.0 0.0 35 140
- 3.3 1 5 cbr 1000 ------- 0 1.0 0.0 35 140
+ 3.3 2 5 cbr 1000 ------- 0 2.0 0.1 35 141
- 3.3 2 5 cbr 1000 ------- 0 2.0 0.1 35 141
+ 3.3 3 5 cbr 1000 ------- 0 3.0 0.2 35 142
- 3.3 3 5 cbr 1000 ------- 0 3.0 0.2 35 142
+ 3.3 4 5 cbr 1000 ------- 0 4.0 0.3 35 143
- 3.3 4 5 cbr 1000 ------- 0 4.0 0.3 35 143
r 3.308512 5 0 cbr 1000 ------- 0 4.0 0.3 35 143
r 3.317368 5 0 cbr 1000 ------- 0 1.0 0.0 35 140
r 3.330832 5 0 cbr 1000 ------- 0 3.0 0.2 35 142
r 3.339044 5 0 cbr 1000 ------- 0 2.0 0.1 35 141
h 3.38 1 5 cbr 1000 ------- 0 1.0 0.0 36 144
h 3.38 2 5 cbr 1000 ------- 0 2.0 0.1 36 145
h 3.38 3 5 cbr 1000 ------- 0 3.0 0.2 36 146
h 3.38 4 5 cbr 1000 ------- 0 4.0 0.3 36 147
+ 3.38 1 5 cbr 1000 ------- 0 1.0 0.0 36 144
- 3.38 1 5 cbr 1000 ------- 0 1.0 0.0 36 144
+ 3.38 2 5 cbr 1000 ------- 0 2.0 0.1 36 145
- 3.38 2 5 cbr 1000 ------- 0 2.0 0.1 36 145
+ 3.38 3 5 cbr 1000 ------- 0 3.0 0.2 36 146
- 3.38 3 5 cbr 1000 ------- 0 3.0 0.2 36 146
+ 3.38 4 5 cbr 1000 ------- 0 4.0 0.3 36 147
- 3.38 4 5 cbr 1000 ------- 0 4.0 0.3 36 147
r 3.38838 5 0 cbr 1000 ------- 0 3.0 0.2 36 146
r 3.396724 5 0 cbr 1000 ------- 0 2.0 0.1 36 145
r 3.408652 5 0 cbr 1000 ------- 0 1.0 0.0 36 144
r 3.416864 5 0 cbr 1000 ------- 0 4.0 0.3 36 147
h 3.46 1 5 cbr 1000 ------- 0 1.0 0.0 37 148
h 3.46 2 5 cbr 1000 ------- 0 2.0 0.1 37 149
h 3.46 3 5 cbr 1000 ------- 0 3.0 0.2 37 150
h 3.46 4 5 cbr 1000 ------- 0 4.0 0.3 37 151
+ 3.46 1 5 cbr 1000 ------- 0 1.0 0.0 37 148
- 3.46 1 5 cbr 1000 ------- 0 1.0 0.0 37 148
+ 3.46 2 5 cbr 1000 ------- 0 2.0 0.1 37 149
- 3.46 2 5 cbr 1000 ------- 0 2.0 0.1 37 149
+ 3.46 3 5 cbr 1000 ------- 0 3.0 0.2 37 150
- 3.46 3 5 cbr 1000 ------- 0 3.0 0.2 37 150
+ 3.46 4 5 cbr 1000 ------- 0 4.0 0.3 37 151
- 3.46 4 5 cbr 1000 ------- 0 4.0 0.3 37 151
r 3.46876 5 0 cbr 1000 ------- 0 1.0 0.0 37 148
r 3.477616 5 0 cbr 1000 ------- 0 4.0 0.3 37 151
r 3.492104 5 0 cbr 1000 ------- 0 2.0 0.1 37 149
r 3.500316 5 0 cbr 1000 ------- 0 3.0 0.2 37 150
h 3.54 1 5 cbr 1000 ------- 0 1.0 0.0 38 152
h 3.54 2 5 cbr 1000 ------- 0 2.0 0.1 38 153
h 3.54 3 5 cbr 1000 ------- 0 3.0 0.2 38 154
h 3.54 4 5 cbr 1000 ------- 0 4.0 0.3 38 155
+ 3.54 1 5 cbr 1000 ------- 0 1.0 0.0 38 152
- 3.54 1 5 cbr 1000 ------- 0 1.0 0.0 38 152
+ 3.54 2 5 cbr 1000 ------- 0 2.0 0.1 38 153
- 3.54 2 5 cbr 1000 ------- 0 2.0 0.1 38 153
+ 3.54 3 5 cbr 1000 ------- 0 3.0 0.2 38 154
- 3.54 3 5 cbr 1000 ------- 0 3.0 0.2 38 154
+ 3.54 4 5 cbr 1000 ------- 0 4.0 0.3 38 155
- 3.54 4 5 cbr 1000 ------- 0 4.0 0.3 38 155
r 3.548892 5 0 cbr 1000 ------- 0 4.0 0.3 38 155
r 3.557236 5 0 cbr 1000 ------- 0 2.0 0.1 38 153
r 3.57544 5 0 cbr 1000 ------- 0 1.0 0.0 38 152
r 3.583652 5 0 cbr 1000 ------- 0 3.0 0.2 38 154
h 3.62 1 5 cbr 1000 ------- 0 1.0 0.0 39 156
h 3.62 2 5 cbr 1000 ------- 0 2.0 0.1 39 157
h 3.62 3 5 cbr 1000 ------- 0 3.0 0.2 39 158
h 3.62 4 5 cbr 1000 ------- 0 4.0 0.3 39 159
+ 3.62 1 5 cbr 1000 ------- 0 1.0 0.0 39 156
- 3.62 1 5 cbr 1000 ------- 0 1.0 0.0 39 156
+ 3.62 2 5 cbr 1000 ------- 0 2.0 0.1 39 157
- 3.62 2 5 cbr 1000 ------- 0 2.0 0.1 39 157
+ 3.62 3 5 cbr 1000 ------- 0 3.0 0.2 39 158
- 3.62 3 5 cbr 1000 ------- 0 3.0 0.2 39 158
+ 3.62 4 5 cbr 1000 ------- 0 4.0 0.3 39 159
- 3.62 4 5 cbr 1000 ------- 0 4.0 0.3 39 159
r 3.62876 5 0 cbr 1000 ------- 0 3.0 0.2 39 158
r 3.638128 5 0 cbr 1000 ------- 0 2.0 0.1 39 157
r 3.648008 5 0 cbr 1000 ------- 0 4.0 0.3 39 159
r 3.65622 5 0 cbr 1000 ------- 0 1.0 0.0 39 156
h 3.7 1 5 cbr 1000 ------- 0 1.0 0.0 40 160
h 3.7 2 5 cbr 1000 ------- 0 2.0 0.1 40 161
h 3.7 3 5 cbr 1000 ------- 0 3.0 0.2 40 162
h 3.7 4 5 cbr 1000 ------- 0 4.0 0.3 40 163
+ 3.7 1 5 cbr 1000 ------- 0 1.0 0.0 40 160
- 3.7 1 5 cbr 1000 ------- 0 1.0 0.0 40 160
+ 3.7 2 5 cbr 1000 ------- 0 2.0 0.1 40 161
- 3.7 2 5 cbr 1000 ------- 0 2.0 0.1 40 161
+ 3.7 3 5 cbr 1000 ------- 0 3.0 0.2 40 162
- 3.7 3 5 cbr 1000 ------- 0 3.0 0.2 40 162
+ 3.7 4 5 cbr 1000 ------- 0 4.0 0.3 40 163
- 3.7 4 5 cbr 1000 ------- 0 4.0 0.3 40 163
r 3.708892 5 0 cbr 1000 ------- 0 4.0 0.3 40 163
r 3.717748 5 0 cbr 1000 ------- 0 3.0 0.2 40 162
r 3.726604 5 0 cbr 1000 ------- 0 2.0 0.1 40 161
r 3.734816 5 0 cbr 1000 ------- 0 1.0 0.0 40 160
h 3.78 1 5 cbr 1000 ------- 0 1.0 0.0 41 164
h 3.78 2 5 cbr 1000 ------- 0 2.0 0.1 41 165
h 3.78 3 5 cbr 1000 ------- 0 3.0 0.2 41 166
h 3.78 4 5 cbr 1000 ------- 0 4.0 0.3 41 167
+ 3.78 1 5 cbr 1000 ------- 0 1.0 0.0 41 164
- 3.78 1 5 cbr 1000 ------- 0 1.0 0.0 41 164
+ 3.78 2 5 cbr 1000 ------- 0 2.0 0.1 41 165
- 3.78 2 5 cbr 1000 ------- 0 2.0 0.1 41 165
+ 3.78 3 5 cbr 1000 ------- 0 3.0 0.2 41 166
- 3.78 3 5 cbr 1000 ------- 0 3.0 0.2 41 166
+ 3.78 4 5 cbr 1000 ------- 0 4.0 0.3 41 167
- 3.78 4 5 cbr 1000 ------- 0 4.0 0.3 41 167