h 0.5 1 21 cbr 1000 ------- 0 1.0 0.0 0 0
h 0.5 2 21 cbr 1000 ------- 0 2.0 0.1 0 1
h 0.5 3 21 cbr 1000 ------- 0 3.0 0.2 0 2
h 0.5 4 21 cbr 1000 ------- 0 4.0 0.3 0 3
h 0.5 5 21 cbr 1000 ------- 0 5.0 0.4 0 4
h 0.5 6 21 cbr 1000 ------- 0 6.0 0.5 0 5
h 0.5 7 21 cbr 1000 ------- 0 7.0 0.6 0 6
h 0.5 8 21 cbr 1000 ------- 0 8.0 0.7 0 7
h 0.5 9 21 cbr 1000 ------- 0 9.0 0.8 0 8
h 0.5 10 21 cbr 1000 ------- 0 10.0 0.9 0 9
h 0.5 11 21 cbr 1000 ------- 0 11.0 0.10 0 10
h 0.5 12 21 cbr 1000 ------- 0 12.0 0.11 0 11
h 0.5 13 21 cbr 1000 ------- 0 13.0 0.12 0 12
h 0.5 14 21 cbr 1000 ------- 0 14.0 0.13 0 13
h 0.5 15 21 cbr 1000 ------- 0 15.0 0.14 0 14
h 0.5 16 21 cbr 1000 ------- 0 16.0 0.15 0 15
h 0.5 17 21 cbr 1000 ------- 0 17.0 0.16 0 16
h 0.5 18 21 cbr 1000 ------- 0 18.0 0.17 0 17
h 0.5 19 21 cbr 1000 ------- 0 19.0 0.18 0 18
h 0.5 20 21 cbr 1000 ------- 0 20.0 0.19 0 19
+ 0.5 1 21 cbr 1000 ------- 0 1.0 0.0 0 0
- 0.5 1 21 cbr 1000 ------- 0 1.0 0.0 0 0
+ 0.5 2 21 cbr 1000 ------- 0 2.0 0.1 0 1
- 0.5 2 21 cbr 1000 ------- 0 2.0 0.1 0 1
+ 0.5 3 21 cbr 1000 ------- 0 3.0 0.2 0 2
- 0.5 3 21 cbr 1000 ------- 0 3.0 0.2 0 2
+ 0.5 4 21 cbr 1000 ------- 0 4.0 0.3 0 3
- 0.5 4 21 cbr 1000 ------- 0 4.0 0.3 0 3
+ 0.5 5 21 cbr 1000 ------- 0 5.0 0.4 0 4
- 0.5 5 21 cbr 1000 ------- 0 5.0 0.4 0 4
+ 0.5 6 21 cbr 1000 ------- 0 6.0 0.5 0 5
- 0.5 6 21 cbr 1000 ------- 0 6.0 0.5 0 5
+ 0.5 7 21 cbr 1000 ------- 0 7.0 0.6 0 6
- 0.5 7 21 cbr 1000 ------- 0 7.0 0.6 0 6
+ 0.5 8 21 cbr 1000 ------- 0 8.0 0.7 0 7
- 0.5 8 21 cbr 1000 ------- 0 8.0 0.7 0 7
+ 0.5 9 21 cbr 1000 ------- 0 9.0 0.8 0 8
- 0.5 9 21 cbr 1000 ------- 0 9.0 0.8 0 8
+ 0.5 10 21 cbr 1000 ------- 0 10.0 0.9 0 9
- 0.5 10 21 cbr 1000 ------- 0 10.0 0.9 0 9
+ 0.5 11 21 cbr 1000 ------- 0 11.0 0.10 0 10
- 0.5 11 21 cbr 1000 ------- 0 11.0 0.10 0 10
+ 0.5 12 21 cbr 1000 ------- 0 12.0 0.11 0 11
- 0.5 12 21 cbr 1000 ------- 0 12.0 0.11 0 11
+ 0.5 13 21 cbr 1000 ------- 0 13.0 0.12 0 12
- 0.5 13 21 cbr 1000 ------- 0 13.0 0.12 0 12
+ 0.5 14 21 cbr 1000 ------- 0 14.0 0.13 0 13
- 0.5 14 21 cbr 1000 ------- 0 14.0 0.13 0 13
+ 0.5 15 21 cbr 1000 ------- 0 15.0 0.14 0 14
- 0.5 15 21 cbr 1000 ------- 0 15.0 0.14 0 14
+ 0.5 16 21 cbr 1000 ------- 0 16.0 0.15 0 15
- 0.5 16 21 cbr 1000 ------- 0 16.0 0.15 0 15
+ 0.5 17 21 cbr 1000 ------- 0 17.0 0.16 0 16
- 0.5 17 21 cbr 1000 ------- 0 17.0 0.16 0 16
+ 0.5 18 21 cbr 1000 ------- 0 18.0 0.17 0 17
- 0.5 18 21 cbr 1000 ------- 0 18.0 0.17 0 17
+ 0.5 19 21 cbr 1000 ------- 0 19.0 0.18 0 18
- 0.5 19 21 cbr 1000 ------- 0 19.0 0.18 0 18
+ 0.5 20 21 cbr 1000 ------- 0 20.0 0.19 0 19
- 0.5 20 21 cbr 1000 ------- 0 20.0 0.19 0 19
r 0.50838 21 0 cbr 1000 ------- 0 18.0 0.17 0 17
r 0.518392 21 0 cbr 1000 ------- 0 5.0 0.4 0 4
r 0.528272 21 0 cbr 1000 ------- 0 1.0 0.0 0 0
r 0.537128 21 0 cbr 1000 ------- 0 15.0 0.14 0 14
r 0.546856 21 0 cbr 1000 ------- 0 19.0 0.18 0 18
r 0.55556 21 0 cbr 1000 ------- 0 16.0 0.15 0 15
r 0.563904 21 0 cbr 1000 ------- 0 12.0 0.11 0 11
r 0.572608 21 0 cbr 1000 ------- 0 14.0 0.13 0 13
h 0.58 1 21 cbr 1000 ------- 0 1.0 0.0 1 20
h 0.58 2 21 cbr 1000 ------- 0 2.0 0.1 1 21
h 0.58 3 21 cbr 1000 ------- 0 3.0 0.2 1 22
h 0.58 4 21 cbr 1000 ------- 0 4.0 0.3 1 23
h 0.58 5 21 cbr 1000 ------- 0 5.0 0.4 1 24
h 0.58 6 21 cbr 1000 ------- 0 6.0 0.5 1 25
h 0.58 7 21 cbr 1000 ------- 0 7.0 0.6 1 26
h 0.58 8 21 cbr 1000 ------- 0 8.0 0.7 1 27
h 0.58 9 21 cbr 1000 ------- 0 9.0 0.8 1 28
h 0.58 10 21 cbr 1000 ------- 0 10.0 0.9 1 29
h 0.58 11 21 cbr 1000 ------- 0 11.0 0.10 1 30
h 0.58 12 21 cbr 1000 ------- 0 12.0 0.11 1 31
h 0.58 13 21 cbr 1000 ------- 0 13.0 0.12 1 32
h 0.58 14 21 cbr 1000 ------- 0 14.0 0.13 1 33
h 0.58 15 21 cbr 1000 ------- 0 15.0 0.14 1 34
h 0.58 16 21 cbr 1000 ------- 0 16.0 0.15 1 35
h 0.58 17 21 cbr 1000 ------- 0 17.0 0.16 1 36
h 0.58 18 21 cbr 1000 ------- 0 18.0 0.17 1 37
h 0.58 19 21 cbr 1000 ------- 0 19.0 0.18 1 38
h 0.58 20 21 cbr 1000 ------- 0 20.0 0.19 1 39
+ 0.58 1 21 cbr 1000 ------- 0 1.0 0.0 1 20
- 0.58 1 21 cbr 1000 ------- 0 1.0 0.0 1 20
+ 0.58 2 21 cbr 1000 ------- 0 2.0 0.1 1 21
+ 0.58 3 21 cbr 1000 ------- 0 3.0 0.2 1 22
+ 0.58 4 21 cbr 1000 ------- 0 4.0 0.3 1 23
+ 0.58 5 21 cbr 1000 ------- 0 5.0 0.4 1 24
- 0.58 5 21 cbr 1000 ------- 0 5.0 0.4 1 24
+ 0.58 6 21 cbr 1000 ------- 0 6.0 0.5 1 25
+ 0.58 7 21 cbr 1000 ------- 0 7.0 0.6 1 26
+ 0.58 8 21 cbr 1000 ------- 0 8.0 0.7 1 27
+ 0.58 9 21 cbr 1000 ------- 0 9.0 0.8 1 28
+ 0.58 10 21 cbr 1000 ------- 0 10.0 0.9 1 29
+ 0.58 11 21 cbr 1000 ------- 0 11.0 0.10 1 30
+ 0.58 12 21 cbr 1000 ------- 0 12.0 0.11 1 31
- 0.58 12 21 cbr 1000 ------- 0 12.0 0.11 1 31
+ 0.58 13 21 cbr 1000 ------- 0 13.0 0.12 1 32
+ 0.58 14 21 cbr 1000 ------- 0 14.0 0.13 1 33
- 0.58 14 21 cbr 1000 ------- 0 14.0 0.13 1 33
+ 0.58 15 21 cbr 1000 ------- 0 15.0 0.14 1 34
- 0.58 15 21 cbr 1000 ------- 0 15.0 0.14 1 34
+ 0.58 16 21 cbr 1000 ------- 0 16.0 0.15 1 35
- 0.58 16 21 cbr 1000 ------- 0 16.0 0.15 1 35
+ 0.58 17 21 cbr 1000 ------- 0 17.0 0.16 1 36
+ 0.58 18 21 cbr 1000 ------- 0 18.0 0.17 1 37
- 0.58 18 21 cbr 1000 ------- 0 18.0 0.17 1 37
+ 0.58 19 21 cbr 1000 ------- 0 19.0 0.18 1 38
- 0.58 19 21 cbr 1000 ------- 0 19.0 0.18 1 38
+ 0.58 20 21 cbr 1000 ------- 0 20.0 0.19 1 39
r 0.59018 21 0 cbr 1000 ------- 0 14.0 0.13 1 33
r 0.599548 21 0 cbr 1000 ------- 0 19.0 0.18 1 38
r 0.608916 21 0 cbr 1000 ------- 0 1.0 0.0 1 20
r 0.61884 21 0 cbr 1000 ------- 0 13.0 0.12 0 12
- 0.618932 13 21 cbr 1000 ------- 0 13.0 0.12 1 32
r 0.627696 21 0 cbr 1000 ------- 0 13.0 0.12 1 32
r 0.635908 21 0 cbr 1000 ------- 0 12.0 0.11 1 31
r 0.644396 21 0 cbr 1000 ------- 0 5.0 0.4 1 24
r 0.652608 21 0 cbr 1000 ------- 0 16.0 0.15 1 35
h 0.66 1 21 cbr 1000 ------- 0 1.0 0.0 2 40
h 0.66 2 21 cbr 1000 ------- 0 2.0 0.1 2 41
h 0.66 3 21 cbr 1000 ------- 0 3.0 0.2 2 42
h 0.66 4 21 cbr 1000 ------- 0 4.0 0.3 2 43
h 0.66 5 21 cbr 1000 ------- 0 5.0 0.4 2 44
h 0.66 6 21 cbr 1000 ------- 0 6.0 0.5 2 45
h 0.66 7 21 cbr 1000 ------- 0 7.0 0.6 2 46
h 0.66 8 21 cbr 1000 ------- 0 8.0 0.7 2 47
h 0.66 9 21 cbr 1000 ------- 0 9.0 0.8 2 48
h 0.66 10 21 cbr 1000 ------- 0 10.0 0.9 2 49
h 0.66 11 21 cbr 1000 ------- 0 11.0 0.10 2 50
h 0.66 12 21 cbr 1000 ------- 0 12.0 0.11 2 51
h 0.66 13 21 cbr 1000 ------- 0 13.0 0.12 2 52
h 0.66 14 21 cbr 1000 ------- 0 14.0 0.13 2 53
h 0.66 15 21 cbr 1000 ------- 0 15.0 0.14 2 54
h 0.66 16 21 cbr 1000 ------- 0 16.0 0.15 2 55
h 0.66 17 21 cbr 1000 ------- 0 17.0 0.16 2 56
h 0.66 18 21 cbr 1000 ------- 0 18.0 0.17 2 57
h 0.66 19 21 cbr 1000 ------- 0 19.0 0.18 2 58
h 0.66 20 21 cbr 1000 ------- 0 20.0 0.19 2 59
+ 0.66 1 21 cbr 1000 ------- 0 1.0 0.0 2 40
- 0.66 1 21 cbr 1000 ------- 0 1.0 0.0 2 40
+ 0.66 2 21 cbr 1000 ------- 0 2.0 0.1 2 41
+ 0.66 3 21 cbr 1000 ------- 0 3.0 0.2 2 42
+ 0.66 4 21 cbr 1000 ------- 0 4.0 0.3 2 43
+ 0.66 5 21 cbr 1000 ------- 0 5.0 0.4 2 44
- 0.66 5 21 cbr 1000 ------- 0 5.0 0.4 2 44
+ 0.66 6 21 cbr 1000 ------- 0 6.0 0.5 2 45
+ 0.66 7 21 cbr 1000 ------- 0 7.0 0.6 2 46
+ 0.66 8 21 cbr 1000 ------- 0 8.0 0.7 2 47
+ 0.66 9 21 cbr 1000 ------- 0 9.0 0.8 2 48
+ 0.66 10 21 cbr 1000 ------- 0 10.0 0.9 2 49
+ 0.66 11 21 cbr 1000 ------- 0 11.0 0.10 2 50
+ 0.66 12 21 cbr 1000 ------- 0 12.0 0.11 2 51
- 0.66 12 21 cbr 1000 ------- 0 12.0 0.11 2 51
+ 0.66 13 21 cbr 1000 ------- 0 13.0 0.12 2 52
- 0.66 13 21 cbr 1000 ------- 0 13.0 0.12 2 52
+ 0.66 14 21 cbr 1000 ------- 0 14.0 0.13 2 53
- 0.66 14 21 cbr 1000 ------- 0 14.0 0.13 2 53
+ 0.66 15 21 cbr 1000 ------- 0 15.0 0.14 2 54
+ 0.66 16 21 cbr 1000 ------- 0 16.0 0.15 2 55
- 0.66 16 21 cbr 1000 ------- 0 16.0 0.15 2 55
+ 0.66 17 21 cbr 1000 ------- 0 17.0 0.16 2 56
+ 0.66 18 21 cbr 1000 ------- 0 18.0 0.17 2 57
+ 0.66 19 21 cbr 1000 ------- 0 19.0 0.18 2 58
- 0.66 19 21 cbr 1000 ------- 0 19.0 0.18 2 58
+ 0.66 20 21 cbr 1000 ------- 0 20.0 0.19 2 59
r 0.664024 21 0 cbr 1000 ------- 0 2.0 0.1 0 1
- 0.664116 2 21 cbr 1000 ------- 0 2.0 0.1 1 21
r 0.673008 21 0 cbr 1000 ------- 0 14.0 0.13 2 53
r 0.681352 21 0 cbr 1000 ------- 0 16.0 0.15 2 55
r 0.689696 21 0 cbr 1000 ------- 0 5.0 0.4 2 44
r 0.699064 21 0 cbr 1000 ------- 0 1.0 0.0 2 40
r 0.70828 21 0 cbr 1000 ------- 0 12.0 0.11 2 51
r 0.717648 21 0 cbr 1000 ------- 0 19.0 0.18 2 58
r 0.726352 21 0 cbr 1000 ------- 0 2.0 0.1 1 21
- 0.726444 2 21 cbr 1000 ------- 0 2.0 0.1 2 41
r 0.735208 21 0 cbr 1000 ------- 0 2.0 0.1 2 41
h 0.74 1 21 cbr 1000 ------- 0 1.0 0.0 3 60
h 0.74 2 21 cbr 1000 ------- 0 2.0 0.1 3 61
h 0.74 3 21 cbr 1000 ------- 0 3.0 0.2 3 62
h 0.74 4 21 cbr 1000 ------- 0 4.0 0.3 3 63
h 0.74 5 21 cbr 1000 ------- 0 5.0 0.4 3 64
h 0.74 6 21 cbr 1000 ------- 0 6.0 0.5 3 65
h 0.74 7 21 cbr 1000 ------- 0 7.0 0.6 3 66
h 0.74 8 21 cbr 1000 ------- 0 8.0 0.7 3 67
h 0.74 9 21 cbr 1000 ------- 0 9.0 0.8 3 68
h 0.74 10 21 cbr 1000 ------- 0 10.0 0.9 3 69
h 0.74 11 21 cbr 1000 ------- 0 11.0 0.10 3 70
h 0.74 12 21 cbr 1000 ------- 0 12.0 0.11 3 71
h 0.74 13 21 cbr 1000 ------- 0 13.0 0.12 3 72
h 0.74 14 21 cbr 1000 ------- 0 14.0 0.13 3 73
h 0.74 15 21 cbr 1000 ------- 0 15.0 0.14 3 74
h 0.74 16 21 cbr 1000 ------- 0 16.0 0.15 3 75
h 0.74 17 21 cbr 1000 ------- 0 17.0 0.16 3 76
h 0.74 18 21 cbr 1000 ------- 0 18.0 0.17 3 77
h 0.74 19 21 cbr 1000 ------- 0 19.0 0.18 3 78
h 0.74 20 21 cbr 1000 ------- 0 20.0 0.19 3 79
+ 0.74 1 21 cbr 1000 ------- 0 1.0 0.0 3 60
- 0.74 1 21 cbr 1000 ------- 0 1.0 0.0 3 60
+ 0.74 2 21 cbr 1000 ------- 0 2.0 0.1 3 61
- 0.74 2 21 cbr 1000 ------- 0 2.0 0.1 3 61
+ 0.74 3 21 cbr 1000 ------- 0 3.0 0.2 3 62
+ 0.74 4 21 cbr 1000 ------- 0 4.0 0.3 3 63
+ 0.74 5 21 cbr 1000 ------- 0 5.0 0.4 3 64
- 0.74 5 21 cbr 1000 ------- 0 5.0 0.4 3 64
+ 0.74 6 21 cbr 1000 ------- 0 6.0 0.5 3 65
+ 0.74 7 21 cbr 1000 ------- 0 7.0 0.6 3 66
+ 0.74 8 21 cbr 1000 ------- 0 8.0 0.7 3 67
+ 0.74 9 21 cbr 1000 ------- 0 9.0 0.8 3 68
+ 0.74 10 21 cbr 1000 ------- 0 10.0 0.9 3 69
+ 0.74 11 21 cbr 1000 ------- 0 11.0 0.10 3 70
+ 0.74 12 21 cbr 1000 ------- 0 12.0 0.11 3 71
- 0.74 12 21 cbr 1000 ------- 0 12.0 0.11 3 71
+ 0.74 13 21 cbr 1000 ------- 0 13.0 0.12 3 72
+ 0.74 14 21 cbr 1000 ------- 0 14.0 0.13 3 73
- 0.74 14 21 cbr 1000 ------- 0 14.0 0.13 3 73
+ 0.74 15 21 cbr 1000 ------- 0 15.0 0.14 3 74
+ 0.74 16 21 cbr 1000 ------- 0 16.0 0.15 3 75
- 0.74 16 21 cbr 1000 ------- 0 16.0 0.15 3 75
+ 0.74 17 21 cbr 1000 ------- 0 17.0 0.16 3 76
+ 0.74 18 21 cbr 1000 ------- 0 18.0 0.17 3 77
+ 0.74 19 21 cbr 1000 ------- 0 19.0 0.18 3 78
- 0.74 19 21 cbr 1000 ------- 0 19.0 0.18 3 78
+ 0.74 20 21 cbr 1000 ------- 0 20.0 0.19 3 79
r 0.74342 21 0 cbr 1000 ------- 0 13.0 0.12 2 52
- 0.743512 13 21 cbr 1000 ------- 0 13.0 0.12 3 72
r 0.751892 21 0 cbr 1000 ------- 0 14.0 0.13 3 73
r 0.760236 21 0 cbr 1000 ------- 0 12.0 0.11 3 71
r 0.770116 21 0 cbr 1000 ------- 0 2.0 0.1 3 61
r 0.778972 21 0 cbr 1000 ------- 0 13.0 0.12 3 72
r 0.797404 21 0 cbr 1000 ------- 0 1.0 0.0 3 60
r 0.80626 21 0 cbr 1000 ------- 0 19.0 0.18 3 78
r 0.814472 21 0 cbr 1000 ------- 0 16.0 0.15 3 75
h 0.82 1 21 cbr 1000 ------- 0 1.0 0.0 4 80
h 0.82 2 21 cbr 1000 ------- 0 2.0 0.1 4 81
h 0.82 3 21 cbr 1000 ------- 0 3.0 0.2 4 82
h 0.82 4 21 cbr 1000 ------- 0 4.0 0.3 4 83
h 0.82 5 21 cbr 1000 ------- 0 5.0 0.4 4 84
h 0.82 6 21 cbr 1000 ------- 0 6.0 0.5 4 85
h 0.82 7 21 cbr 1000 ------- 0 7.0 0.6 4 86
h 0.82 8 21 cbr 1000 ------- 0 8.0 0.7 4 87
h 0.82 9 21 cbr 1000 ------- 0 9.0 0.8 4 88
h 0.82 10 21 cbr 1000 ------- 0 10.0 0.9 4 89
h 0.82 11 21 cbr 1000 ------- 0 11.0 0.10 4 90
h 0.82 12 21 cbr 1000 ------- 0 12.0 0.11 4 91
h 0.82 13 21 cbr 1000 ------- 0 13.0 0.12 4 92
h 0.82 14 21 cbr 1000 ------- 0 14.0 0.13 4 93
h 0.82 15 21 cbr 1000 ------- 0 15.0 0.14 4 94
h 0.82 16 21 cbr 1000 ------- 0 16.0 0.15 4 95
h 0.82 17 21 cbr 1000 ------- 0 17.0 0.16 4 96
h 0.82 18 21 cbr 1000 ------- 0 18.0 0.17 4 97
h 0.82 19 21 cbr 1000 ------- 0 19.0 0.18 4 98
h 0.82 20 21 cbr 1000 ------- 0 20.0 0.19 4 99
+ 0.82 1 21 cbr 1000 ------- 0 1.0 0.0 4 80
- 0.82 1 21 cbr 1000 ------- 0 1.0 0.0 4 80
+ 0.82 2 21 cbr 1000 ------- 0 2.0 0.1 4 81
- 0.82 2 21 cbr 1000 ------- 0 2.0 0.1 4 81
+ 0.82 3 21 cbr 1000 ------- 0 3.0 0.2 4 82
+ 0.82 4 21 cbr 1000 ------- 0 4.0 0.3 4 83
+ 0.82 5 21 cbr 1000 ------- 0 5.0 0.4 4 84
+ 0.82 6 21 cbr 1000 ------- 0 6.0 0.5 4 85
+ 0.82 7 21 cbr 1000 ------- 0 7.0 0.6 4 86
+ 0.82 8 21 cbr 1000 ------- 0 8.0 0.7 4 87
+ 0.82 9 21 cbr 1000 ------- 0 9.0 0.8 4 88
+ 0.82 10 21 cbr 1000 ------- 0 10.0 0.9 4 89
+ 0.82 11 21 cbr 1000 ------- 0 11.0 0.10 4 90
+ 0.82 12 21 cbr 1000 ------- 0 12.0 0.11 4 91
- 0.82 12 21 cbr 1000 ------- 0 12.0 0.11 4 91
+ 0.82 13 21 cbr 1000 ------- 0 13.0 0.12 4 92
- 0.82 13 21 cbr 1000 ------- 0 13.0 0.12 4 92
+ 0.82 14 21 cbr 1000 ------- 0 14.0 0.13 4 93
- 0.82 14 21 cbr 1000 ------- 0 14.0 0.13 4 93
+ 0.82 15 21 cbr 1000 ------- 0 15.0 0.14 4 94
+ 0.82 16 21 cbr 1000 ------- 0 16.0 0.15 4 95
- 0.82 16 21 cbr 1000 ------- 0 16.0 0.15 4 95
+ 0.82 17 21 cbr 1000 ------- 0 17.0 0.16 4 96
+ 0.82 18 21 cbr 1000 ------- 0 18.0 0.17 4 97
+ 0.82 19 21 cbr 1000 ------- 0 19.0 0.18 4 98
- 0.82 19 21 cbr 1000 ------- 0 19.0 0.18 4 98
+ 0.82 20 21 cbr 1000 ------- 0 20.0 0.19 4 99
r 0.82838 21 0 cbr 1000 ------- 0 16.0 0.15 4 95
r 0.837236 21 0 cbr 1000 ------- 0 2.0 0.1 4 81
r 0.84558 21 0 cbr 1000 ------- 0 1.0 0.0 4 80
r 0.854948 21 0 cbr 1000 ------- 0 14.0 0.13 4 93
r 0.863852 21 0 cbr 1000 ------- 0 6.0 0.5 0 5
- 0.863944 6 21 cbr 1000 ------- 0 6.0 0.5 1 25
r 0.872708 21 0 cbr 1000 ------- 0 6.0 0.5 1 25
- 0.8728 6 21 cbr 1000 ------- 0 6.0 0.5 2 45
r 0.881692 21 0 cbr 1000 ------- 0 6.0 0.5 2 45
- 0.881784 6 21 cbr 1000 ------- 0 6.0 0.5 3 65
r 0.89034 21 0 cbr 1000 ------- 0 18.0 0.17 1 37
- 0.890432 18 21 cbr 1000 ------- 0 18.0 0.17 2 57
r 0.899196 21 0 cbr 1000 ------- 0 18.0 0.17 2 57
- 0.899288 18 21 cbr 1000 ------- 0 18.0 0.17 3 77
h 0.9 1 21 cbr 1000 ------- 0 1.0 0.0 5 100
h 0.9 2 21 cbr 1000 ------- 0 2.0 0.1 5 101
h 0.9 3 21 cbr 1000 ------- 0 3.0 0.2 5 102
h 0.9 4 21 cbr 1000 ------- 0 4.0 0.3 5 103
h 0.9 5 21 cbr 1000 ------- 0 5.0 0.4 5 104
h 0.9 6 21 cbr 1000 ------- 0 6.0 0.5 5 105
h 0.9 7 21 cbr 1000 ------- 0 7.0 0.6 5 106
h 0.9 8 21 cbr 1000 ------- 0 8.0 0.7 5 107
h 0.9 9 21 cbr 1000 ------- 0 9.0 0.8 5 108
h 0.9 10 21 cbr 1000 ------- 0 10.0 0.9 5 109
h 0.9 11 21 cbr 1000 ------- 0 11.0 0.10 5 110
h 0.9 12 21 cbr 1000 ------- 0 12.0 0.11 5 111
h 0.9 13 21 cbr 1000 ------- 0 13.0 0.12 5 112
h 0.9 14 21 cbr 1000 ------- 0 14.0 0.13 5 113
h 0.9 15 21 cbr 1000 ------- 0 15.0 0.14 5 114
h 0.9 16 21 cbr 1000 ------- 0 16.0 0.15 5 115
h 0.9 17 21 cbr 1000 ------- 0 17.0 0.16 5 116
h 0.9 18 21 cbr 1000 ------- 0 18.0 0.17 5 117
h 0.9 19 21 cbr 1000 ------- 0 19.0 0.18 5 118
h 0.9 20 21 cbr 1000 ------- 0 20.0 0.19 5 119
+ 0.9 1 21 cbr 1000 ------- 0 1.0 0.0 5 100
- 0.9 1 21 cbr 1000 ------- 0 1.0 0.0 5 100
+ 0.9 2 21 cbr 1000 ------- 0 2.0 0.1 5 101
- 0.9 2 21 cbr 1000 ------- 0 2.0 0.1 5 101
+ 0.9 3 21 cbr 1000 ------- 0 3.0 0.2 5 102
+ 0.9 4 21 cbr 1000 ------- 0 4.0 0.3 5 103
+ 0.9 5 21 cbr 1000 ------- 0 5.0 0.4 5 104
+ 0.9 6 21 cbr 1000 ------- 0 6.0 0.5 5 105
+ 0.9 7 21 cbr 1000 ------- 0 7.0 0.6 5 106
+ 0.9 8 21 cbr 1000 ------- 0 8.0 0.7 5 107
+ 0.9 9 21 cbr 1000 ------- 0 9.0 0.8 5 108
+ 0.9 10 21 cbr 1000 ------- 0 10.0 0.9 5 109
+ 0.9 11 21 cbr 1000 ------- 0 11.0 0.10 5 110
+ 0.9 12 21 cbr 1000 ------- 0 12.0 0.11 5 111
+ 0.9 13 21 cbr 1000 ------- 0 13.0 0.12 5 112
+ 0.9 14 21 cbr 1000 ------- 0 14.0 0.13 5 113
- 0.9 14 21 cbr 1000 ------- 0 14.0 0.13 5 113
+ 0.9 15 21 cbr 1000 ------- 0 15.0 0.14 5 114
+ 0.9 16 21 cbr 1000 ------- 0 16.0 0.15 5 115
- 0.9 16 21 cbr 1000 ------- 0 16.0 0.15 5 115
+ 0.9 17 21 cbr 1000 ------- 0 17.0 0.16 5 116
+ 0.9 18 21 cbr 1000 ------- 0 18.0 0.17 5 117
+ 0.9 19 21 cbr 1000 ------- 0 19.0 0.18 5 118
+ 0.9 20 21 cbr 1000 ------- 0 20.0 0.19 5 119
r 0.907952 21 0 cbr 1000 ------- 0 12.0 0.11 4 91
- 0.908044 12 21 cbr 1000 ------- 0 12.0 0.11 5 111
r 0.916752 21 0 cbr 1000 ------- 0 8.0 0.7 0 7
- 0.916844 8 21 cbr 1000 ------- 0 8.0 0.7 1 27
r 0.926116 21 0 cbr 1000 ------- 0 1.0 0.0 5 100
r 0.93446 21 0 cbr 1000 ------- 0 8.0 0.7 1 27
- 0.934552 8 21 cbr 1000 ------- 0 8.0 0.7 2 47
r 0.942804 21 0 cbr 1000 ------- 0 8.0 0.7 2 47
- 0.942896 8 21 cbr 1000 ------- 0 8.0 0.7 3 67
r 0.951868 21 0 cbr 1000 ------- 0 6.0 0.5 3 65
- 0.95196 6 21 cbr 1000 ------- 0 6.0 0.5 4 85
r 0.960212 21 0 cbr 1000 ------- 0 6.0 0.5 4 85
- 0.960304 6 21 cbr 1000 ------- 0 6.0 0.5 5 105
r 0.968556 21 0 cbr 1000 ------- 0 6.0 0.5 5 105
h 0.98 1 21 cbr 1000 ------- 0 1.0 0.0 6 120
h 0.98 2 21 cbr 1000 ------- 0 2.0 0.1 6 121
h 0.98 3 21 cbr 1000 ------- 0 3.0 0.2 6 122
h 0.98 4 21 cbr 1000 ------- 0 4.0 0.3 6 123
h 0.98 5 21 cbr 1000 ------- 0 5.0 0.4 6 124
h 0.98 6 21 cbr 1000 ------- 0 6.0 0.5 6 125
h 0.98 7 21 cbr 1000 ------- 0 7.0 0.6 6 126
h 0.98 8 21 cbr 1000 ------- 0 8.0 0.7 6 127
h 0.98 9 21 cbr 1000 ------- 0 9.0 0.8 6 128
h 0.98 10 21 cbr 1000 ------- 0 10.0 0.9 6 129
h 0.98 11 21 cbr 1000 ------- 0 11.0 0.10 6 130
h 0.98 12 21 cbr 1000 ------- 0 12.0 0.11 6 131
h 0.98 13 21 cbr 1000 ------- 0 13.0 0.12 6 132
h 0.98 14 21 cbr 1000 ------- 0 14.0 0.13 6 133
h 0.98 15 21 cbr 1000 ------- 0 15.0 0.14 6 134
h 0.98 16 21 cbr 1000 ------- 0 16.0 0.15 6 135
h 0.98 17 21 cbr 1000 ------- 0 17.0 0.16 6 136
h 0.98 18 21 cbr 1000 ------- 0 18.0 0.17 6 137
h 0.98 19 21 cbr 1000 ------- 0 19.0 0.18 6 138
h 0.98 20 21 cbr 1000 ------- 0 20.0 0.19 6 139
+ 0.98 1 21 cbr 1000 ------- 0 1.0 0.0 6 120
- 0.98 1 21 cbr 1000 ------- 0 1.0 0.0 6 120
+ 0.98 2 21 cbr 1000 ------- 0 2.0 0.1 6 121
+ 0.98 3 21 cbr 1000 ------- 0 3.0 0.2 6 122
+ 0.98 4 21 cbr 1000 ------- 0 4.0 0.3 6 123
+ 0.98 5 21 cbr 1000 ------- 0 5.0 0.4 6 124
+ 0.98 6 21 cbr 1000 ------- 0 6.0 0.5 6 125
- 0.98 6 21 cbr 1000 ------- 0 6.0 0.5 6 125
+ 0.98 7 21 cbr 1000 ------- 0 7.0 0.6 6 126
+ 0.98 8 21 cbr 1000 ------- 0 8.0 0.7 6 127
+ 0.98 9 21 cbr 1000 ------- 0 9.0 0.8 6 128
+ 0.98 10 21 cbr 1000 ------- 0 10.0 0.9 6 129
+ 0.98 11 21 cbr 1000 ------- 0 11.0 0.10 6 130
+ 0.98 12 21 cbr 1000 ------- 0 12.0 0.11 6 131
+ 0.98 13 21 cbr 1000 ------- 0 13.0 0.12 6 132
+ 0.98 14 21 cbr 1000 ------- 0 14.0 0.13 6 133
+ 0.98 15 21 cbr 1000 ------- 0 15.0 0.14 6 134
+ 0.98 16 21 cbr 1000 ------- 0 16.0 0.15 6 135
+ 0.98 17 21 cbr 1000 ------- 0 17.0 0.16 6 136
+ 0.98 18 21 cbr 1000 ------- 0 18.0 0.17 6 137
+ 0.98 19 21 cbr 1000 ------- 0 19.0 0.18 6 138
+ 0.98 20 21 cbr 1000 ------- 0 20.0 0.19 6 139
r 0.981352 21 0 cbr 1000 ------- 0 16.0 0.15 5 115
- 0.981444 16 21 cbr 1000 ------- 0 16.0 0.15 6 135
r 0.989692 21 0 cbr 1000 ------- 0 6.0 0.5 6 125
r 0.999192 21 0 cbr 1000 ------- 0 1.0 0.0 6 120
r 1.007404 21 0 cbr 1000 ------- 0 16.0 0.15 6 135
r 1.020124 21 0 cbr 1000 ------- 0 9.0 0.8 0 8
- 1.020216 9 21 cbr 1000 ------- 0 9.0 0.8 1 28
r 1.028468 21 0 cbr 1000 ------- 0 9.0 0.8 1 28
- 1.02856 9 21 cbr 1000 ------- 0 9.0 0.8 2 48
r 1.037324 21 0 cbr 1000 ------- 0 9.0 0.8 2 48
- 1.037416 9 21 cbr 1000 ------- 0 9.0 0.8 3 68
r 1.045668 21 0 cbr 1000 ------- 0 9.0 0.8 3 68
- 1.04576 9 21 cbr 1000 ------- 0 9.0 0.8 4 88
r 1.054012 21 0 cbr 1000 ------- 0 9.0 0.8 4 88
- 1.054104 9 21 cbr 1000 ------- 0 9.0 0.8 5 108
h 1.06 1 21 cbr 1000 ------- 0 1.0 0.0 7 140
h 1.06 2 21 cbr 1000 ------- 0 2.0 0.1 7 141
h 1.06 3 21 cbr 1000 ------- 0 3.0 0.2 7 142
h 1.06 4 21 cbr 1000 ------- 0 4.0 0.3 7 143
h 1.06 5 21 cbr 1000 ------- 0 5.0 0.4 7 144
h 1.06 6 21 cbr 1000 ------- 0 6.0 0.5 7 145
h 1.06 7 21 cbr 1000 ------- 0 7.0 0.6 7 146
h 1.06 8 21 cbr 1000 ------- 0 8.0 0.7 7 147
h 1.06 9 21 cbr 1000 ------- 0 9.0 0.8 7 148
h 1.06 10 21 cbr 1000 ------- 0 10.0 0.9 7 149
h 1.06 11 21 cbr 1000 ------- 0 11.0 0.10 7 150
h 1.06 12 21 cbr 1000 ------- 0 12.0 0.11 7 151
h 1.06 13 21 cbr 1000 ------- 0 13.0 0.12 7 152
h 1.06 14 21 cbr 1000 ------- 0 14.0 0.13 7 153
h 1.06 15 21 cbr 1000 ------- 0 15.0 0.14 7 154
h 1.06 16 21 cbr 1000 ------- 0 16.0 0.15 7 155
h 1.06 17 21 cbr 1000 ------- 0 17.0 0.16 7 156
h 1.06 18 21 cbr 1000 ------- 0 18.0 0.17 7 157
h 1.06 19 21 cbr 1000 ------- 0 19.0 0.18 7 158
h 1.06 20 21 cbr 1000 ------- 0 20.0 0.19 7 159
+ 1.06 1 21 cbr 1000 ------- 0 1.0 0.0 7 140
- 1.06 1 21 cbr 1000 ------- 0 1.0 0.0 7 140
+ 1.06 2 21 cbr 1000 ------- 0 2.0 0.1 7 141
+ 1.06 3 21 cbr 1000 ------- 0 3.0 0.2 7 142
+ 1.06 4 21 cbr 1000 ------- 0 4.0 0.3 7 143
+ 1.06 5 21 cbr 1000 ------- 0 5.0 0.4 7 144
+ 1.06 6 21 cbr 1000 ------- 0 6.0 0.5 7 145
- 1.06 6 21 cbr 1000 ------- 0 6.0 0.5 7 145
+ 1.06 7 21 cbr 1000 ------- 0 7.0 0.6 7 146
+ 1.06 8 21 cbr 1000 ------- 0 8.0 0.7 7 147
+ 1.06 9 21 cbr 1000 ------- 0 9.0 0.8 7 148
+ 1.06 10 21 cbr 1000 ------- 0 10.0 0.9 7 149
+ 1.06 11 21 cbr 1000 ------- 0 11.0 0.10 7 150
+ 1.06 12 21 cbr 1000 ------- 0 12.0 0.11 7 151
+ 1.06 13 21 cbr 1000 ------- 0 13.0 0.12 7 152
+ 1.06 14 21 cbr 1000 ------- 0 14.0 0.13 7 153
+ 1.06 15 21 cbr 1000 ------- 0 15.0 0.14 7 154
+ 1.06 16 21 cbr 1000 ------- 0 16.0 0.15 7 155
- 1.06 16 21 cbr 1000 ------- 0 16.0 0.15 7 155
+ 1.06 17 21 cbr 1000 ------- 0 17.0 0.16 7 156
+ 1.06 18 21 cbr 1000 ------- 0 18.0 0.17 7 157
+ 1.06 19 21 cbr 1000 ------- 0 19.0 0.18 7 158
+ 1.06 20 21 cbr 1000 ------- 0 20.0 0.19 7 159
r 1.062868 21 0 cbr 1000 ------- 0 9.0 0.8 5 108
- 1.06296 9 21 cbr 1000 ------- 0 9.0 0.8 6 128
r 1.072364 21 0 cbr 1000 ------- 0 6.0 0.5 7 145
r 1.080708 21 0 cbr 1000 ------- 0 9.0 0.8 6 128
- 1.0808 9 21 cbr 1000 ------- 0 9.0 0.8 7 148
r 1.089052 21 0 cbr 1000 ------- 0 9.0 0.8 7 148
r 1.104052 21 0 cbr 1000 ------- 0 16.0 0.15 7 155
r 1.112264 21 0 cbr 1000 ------- 0 1.0 0.0 7 140
r 1.126096 21 0 cbr 1000 ------- 0 5.0 0.4 3 64
- 1.126188 5 21 cbr 1000 ------- 0 5.0 0.4 4 84
r 1.13444 21 0 cbr 1000 ------- 0 5.0 0.4 4 84
- 1.134532 5 21 cbr 1000 ------- 0 5.0 0.4 5 104
h 1.14 1 21 cbr 1000 ------- 0 1.0 0.0 8 160
h 1.14 2 21 cbr 1000 ------- 0 2.0 0.1 8 161
h 1.14 3 21 cbr 1000 ------- 0 3.0 0.2 8 162
h 1.14 4 21 cbr 1000 ------- 0 4.0 0.3 8 163
h 1.14 5 21 cbr 1000 ------- 0 5.0 0.4 8 164
h 1.14 6 21 cbr 1000 ------- 0 6.0 0.5 8 165
h 1.14 7 21 cbr 1000 ------- 0 7.0 0.6 8 166
h 1.14 8 21 cbr 1000 ------- 0 8.0 0.7 8 167
h 1.14 9 21 cbr 1000 ------- 0 9.0 0.8 8 168
h 1.14 10 21 cbr 1000 ------- 0 10.0 0.9 8 169
h 1.14 11 21 cbr 1000 ------- 0 11.0 0.10 8 170
h 1.14 12 21 cbr 1000 ------- 0 12.0 0.11 8 171
h 1.14 13 21 cbr 1000 ------- 0 13.0 0.12 8 172
h 1.14 14 21 cbr 1000 ------- 0 14.0 0.13 8 173
h 1.14 15 21 cbr 1000 ------- 0 15.0 0.14 8 174
h 1.14 16 21 cbr 1000 ------- 0 16.0 0.15 8 175
h 1.14 17 21 cbr 1000 ------- 0 17.0 0.16 8 176
h 1.14 18 21 cbr 1000 ------- 0 18.0 0.17 8 177
h 1.14 19 21 cbr 1000 ------- 0 19.0 0.18 8 178
h 1.14 20 21 cbr 1000 ------- 0 20.0 0.19 8 179
+ 1.14 1 21 cbr 1000 ------- 0 1.0 0.0 8 160
- 1.14 1 21 cbr 1000 ------- 0 1.0 0.0 8 160
+ 1.14 2 21 cbr 1000 ------- 0 2.0 0.1 8 161
+ 1.14 3 21 cbr 1000 ------- 0 3.0 0.2 8 162
+ 1.14 4 21 cbr 1000 ------- 0 4.0 0.3 8 163
+ 1.14 5 21 cbr 1000 ------- 0 5.0 0.4 8 164
+ 1.14 6 21 cbr 1000 ------- 0 6.0 0.5 8 165
- 1.14 6 21 cbr 1000 ------- 0 6.0 0.5 8 165
+ 1.14 7 21 cbr 1000 ------- 0 7.0 0.6 8 166
+ 1.14 8 21 cbr 1000 ------- 0 8.0 0.7 8 167
+ 1.14 9 21 cbr 1000 ------- 0 9.0 0.8 8 168
- 1.14 9 21 cbr 1000 ------- 0 9.0 0.8 8 168
+ 1.14 10 21 cbr 1000 ------- 0 10.0 0.9 8 169
+ 1.14 11 21 cbr 1000 ------- 0 11.0 0.10 8 170
+ 1.14 12 21 cbr 1000 ------- 0 12.0 0.11 8 171
+ 1.14 13 21 cbr 1000 ------- 0 13.0 0.12 8 172
+ 1.14 14 21 cbr 1000 ------- 0 14.0 0.13 8 173
+ 1.14 15 21 cbr 1000 ------- 0 15.0 0.14 8 174
+ 1.14 16 21 cbr 1000 ------- 0 16.0 0.15 8 175
- 1.14 16 21 cbr 1000 ------- 0 16.0 0.15 8 175
+ 1.14 17 21 cbr 1000 ------- 0 17.0 0.16 8 176
+ 1.14 18 21 cbr 1000 ------- 0 18.0 0.17 8 177
+ 1.14 19 21 cbr 1000 ------- 0 19.0 0.18 8 178
+ 1.14 20 21 cbr 1000 ------- 0 20.0 0.19 8 179
r 1.142648 21 0 cbr 1000 ------- 0 5.0 0.4 5 104
- 1.14274 5 21 cbr 1000 ------- 0 5.0 0.4 6 124
r 1.15112 21 0 cbr 1000 ------- 0 16.0 0.15 8 175
r 1.159976 21 0 cbr 1000 ------- 0 9.0 0.8 8 168
r 1.17088 21 0 cbr 1000 ------- 0 1.0 0.0 8 160
r 1.180248 21 0 cbr 1000 ------- 0 5.0 0.4 6 124
- 1.18034 5 21 cbr 1000 ------- 0 5.0 0.4 7 144
r 1.188592 21 0 cbr 1000 ------- 0 5.0 0.4 7 144
- 1.188684 5 21 cbr 1000 ------- 0 5.0 0.4 8 164
r 1.1968 21 0 cbr 1000 ------- 0 5.0 0.4 8 164
r 1.210604 21 0 cbr 1000 ------- 0 6.0 0.5 8 165
h 1.22 1 21 cbr 1000 ------- 0 1.0 0.0 9 180
h 1.22 2 21 cbr 1000 ------- 0 2.0 0.1 9 181
h 1.22 3 21 cbr 1000 ------- 0 3.0 0.2 9 182
h 1.22 4 21 cbr 1000 ------- 0 4.0 0.3 9 183
h 1.22 5 21 cbr 1000 ------- 0 5.0 0.4 9 184
h 1.22 6 21 cbr 1000 ------- 0 6.0 0.5 9 185
h 1.22 7 21 cbr 1000 ------- 0 7.0 0.6 9 186
h 1.22 8 21 cbr 1000 ------- 0 8.0 0.7 9 187
h 1.22 9 21 cbr 1000 ------- 0 9.0 0.8 9 188
h 1.22 10 21 cbr 1000 ------- 0 10.0 0.9 9 189
h 1.22 11 21 cbr 1000 ------- 0 11.0 0.10 9 190
h 1.22 12 21 cbr 1000 ------- 0 12.0 0.11 9 191
h 1.22 13 21 cbr 1000 ------- 0 13.0 0.12 9 192
h 1.22 14 21 cbr 1000 ------- 0 14.0 0.13 9 193
h 1.22 15 21 cbr 1000 ------- 0 15.0 0.14 9 194
h 1.22 16 21 cbr 1000 ------- 0 16.0 0.15 9 195
h 1.22 17 21 cbr 1000 ------- 0 17.0 0.16 9 196
h 1.22 18 21 cbr 1000 ------- 0 18.0 0.17 9 197
h 1.22 19 21 cbr 1000 ------- 0 19.0 0.18 9 198
h 1.22 20 21 cbr 1000 ------- 0 20.0 0.19 9 199
+ 1.22 1 21 cbr 1000 ------- 0 1.0 0.0 9 180
- 1.22 1 21 cbr 1000 ------- 0 1.0 0.0 9 180
+ 1.22 2 21 cbr 1000 ------- 0 2.0 0.1 9 181
+ 1.22 3 21 cbr 1000 ------- 0 3.0 0.2 9 182
+ 1.22 4 21 cbr 1000 ------- 0 4.0 0.3 9 183
+ 1.22 5 21 cbr 1000 ------- 0 5.0 0.4 9 184
- 1.22 5 21 cbr 1000 ------- 0 5.0 0.4 9 184
+ 1.22 6 21 cbr 1000 ------- 0 6.0 0.5 9 185
- 1.22 6 21 cbr 1000 ------- 0 6.0 0.5 9 185
+ 1.22 7 21 cbr 1000 ------- 0 7.0 0.6 9 186
+ 1.22 8 21 cbr 1000 ------- 0 8.0 0.7 9 187
+ 1.22 9 21 cbr 1000 ------- 0 9.0 0.8 9 188
- 1.22 9 21 cbr 1000 ------- 0 9.0 0.8 9 188
+ 1.22 10 21 cbr 1000 ------- 0 10.0 0.9 9 189
+ 1.22 11 21 cbr 1000 ------- 0 11.0 0.10 9 190
+ 1.22 12 21 cbr 1000 ------- 0 12.0 0.11 9 191
+ 1.22 13 21 cbr 1000 ------- 0 13.0 0.12 9 192
+ 1.22 14 21 cbr 1000 ------- 0 14.0 0.13 9 193
+ 1.22 15 21 cbr 1000 ------- 0 15.0 0.14 9 194
+ 1.22 16 21 cbr 1000 ------- 0 16.0 0.15 9 195
- 1.22 16 21 cbr 1000 ------- 0 16.0 0.15 9 195
+ 1.22 17 21 cbr 1000 ------- 0 17.0 0.16 9 196
+ 1.22 18 21 cbr 1000 ------- 0 18.0 0.17 9 197
+ 1.22 19 21 cbr 1000 ------- 0 19.0 0.18 9 198
+ 1.22 20 21 cbr 1000 ------- 0 20.0 0.19 9 199
r 1.226648 21 0 cbr 1000 ------- 0 3.0 0.2 0 2
- 1.22674 3 21 cbr 1000 ------- 0 3.0 0.2 1 22
r 1.23512 21 0 cbr 1000 ------- 0 9.0 0.8 9 188
r 1.243976 21 0 cbr 1000 ------- 0 5.0 0.4 9 184
r 1.252804 21 0 cbr 1000 ------- 0 18.0 0.17 3 77
- 1.252896 18 21 cbr 1000 ------- 0 18.0 0.17 4 97
r 1.26166 21 0 cbr 1000 ------- 0 18.0 0.17 4 97
- 1.261752 18 21 cbr 1000 ------- 0 18.0 0.17 5 117
r 1.271668 21 0 cbr 1000 ------- 0 18.0 0.17 5 117
- 1.27176 18 21 cbr 1000 ------- 0 18.0 0.17 6 137
r 1.28024 21 0 cbr 1000 ------- 0 6.0 0.5 9 185
r 1.289096 21 0 cbr 1000 ------- 0 18.0 0.17 6 137
- 1.289188 18 21 cbr 1000 ------- 0 18.0 0.17 7 157
r 1.29744 21 0 cbr 1000 ------- 0 18.0 0.17 7 157
- 1.297532 18 21 cbr 1000 ------- 0 18.0 0.17 8 177
h 1.3 1 21 cbr 1000 ------- 0 1.0 0.0 10 200
h 1.3 2 21 cbr 1000 ------- 0 2.0 0.1 10 201
h 1.3 3 21 cbr 1000 ------- 0 3.0 0.2 10 202
h 1.3 4 21 cbr 1000 ------- 0 4.0 0.3 10 203
h 1.3 5 21 cbr 1000 ------- 0 5.0 0.4 10 204
h 1.3 6 21 cbr 1000 ------- 0 6.0 0.5 10 205
h 1.3 7 21 cbr 1000 ------- 0 7.0 0.6 10 206
h 1.3 8 21 cbr 1000 ------- 0 8.0 0.7 10 207
h 1.3 9 21 cbr 1000 ------- 0 9.0 0.8 10 208
h 1.3 10 21 cbr 1000 ------- 0 10.0 0.9 10 209
h 1.3 11 21 cbr 1000 ------- 0 11.0 0.10 10 210
h 1.3 12 21 cbr 1000 ------- 0 12.0 0.11 10 211
h 1.3 13 21 cbr 1000 ------- 0 13.0 0.12 10 212
h 1.3 14 21 cbr 1000 ------- 0 14.0 0.13 10 213
h 1.3 15 21 cbr 1000 ------- 0 15.0 0.14 10 214
h 1.3 16 21 cbr 1000 ------- 0 16.0 0.15 10 215
h 1.3 17 21 cbr 1000 ------- 0 17.0 0.16 10 216
h 1.3 18 21 cbr 1000 ------- 0 18.0 0.17 10 217
h 1.3 19 21 cbr 1000 ------- 0 19.0 0.18 10 218
h 1.3 20 21 cbr 1000 ------- 0 20.0 0.19 10 219
+ 1.3 1 21 cbr 1000 ------- 0 1.0 0.0 10 200
+ 1.3 2 21 cbr 1000 ------- 0 2.0 0.1 10 201
+ 1.3 3 21 cbr 1000 ------- 0 3.0 0.2 10 202
+ 1.3 4 21 cbr 1000 ------- 0 4.0 0.3 10 203
+ 1.3 5 21 cbr 1000 ------- 0 5.0 0.4 10 204
- 1.3 5 21 cbr 1000 ------- 0 5.0 0.4 10 204
+ 1.3 6 21 cbr 1000 ------- 0 6.0 0.5 10 205
- 1.3 6 21 cbr 1000 ------- 0 6.0 0.5 10 205
+ 1.3 7 21 cbr 1000 ------- 0 7.0 0.6 10 206
+ 1.3 8 21 cbr 1000 ------- 0 8.0 0.7 10 207
+ 1.3 9 21 cbr 1000 ------- 0 9.0 0.8 10 208
- 1.3 9 21 cbr 1000 ------- 0 9.0 0.8 10 208
+ 1.3 10 21 cbr 1000 ------- 0 10.0 0.9 10 209
+ 1.3 11 21 cbr 1000 ------- 0 11.0 0.10 10 210
+ 1.3 12 21 cbr 1000 ------- 0 12.0 0.11 10 211
+ 1.3 13 21 cbr 1000 ------- 0 13.0 0.12 10 212
+ 1.3 14 21 cbr 1000 ------- 0 14.0 0.13 10 213
+ 1.3 15 21 cbr 1000 ------- 0 15.0 0.14 10 214
+ 1.3 16 21 cbr 1000 ------- 0 16.0 0.15 10 215
+ 1.3 17 21 cbr 1000 ------- 0 17.0 0.16 10 216
+ 1.3 18 21 cbr 1000 ------- 0 18.0 0.17 10 217
+ 1.3 19 21 cbr 1000 ------- 0 19.0 0.18 10 218
+ 1.3 20 21 cbr 1000 ------- 0 20.0 0.19 10 219
r 1.306296 21 0 cbr 1000 ------- 0 18.0 0.17 8 177
- 1.306388 18 21 cbr 1000 ------- 0 18.0 0.17 9 197
r 1.315152 21 0 cbr 1000 ------- 0 18.0 0.17 9 197
- 1.315244 18 21 cbr 1000 ------- 0 18.0 0.17 10 217
r 1.323496 21 0 cbr 1000 ------- 0 18.0 0.17 10 217
r 1.333376 21 0 cbr 1000 ------- 0 5.0 0.4 10 204
r 1.3494 21 0 cbr 1000 ------- 0 9.0 0.8 10 208
r 1.360304 21 0 cbr 1000 ------- 0 6.0 0.5 10 205
r 1.377728 21 0 cbr 1000 ------- 0 8.0 0.7 3 67
- 1.37782 8 21 cbr 1000 ------- 0 8.0 0.7 4 87
h 1.38 1 21 cbr 1000 ------- 0 1.0 0.0 11 220
h 1.38 2 21 cbr 1000 ------- 0 2.0 0.1 11 221
h 1.38 3 21 cbr 1000 ------- 0 3.0 0.2 11 222
h 1.38 4 21 cbr 1000 ------- 0 4.0 0.3 11 223
h 1.38 5 21 cbr 1000 ------- 0 5.0 0.4 11 224
h 1.38 6 21 cbr 1000 ------- 0 6.0 0.5 11 225
h 1.38 7 21 cbr 1000 ------- 0 7.0 0.6 11 226