V -t * -v 1.0a5 -a 0
A -t * -n 1 -p 0 -o 0x7fffffff -c 30 -a 1
A -t * -h 1 -m 1073741823 -s 0
n -t * -a 17 -s 17 -S UP -v circle -c black -i black
n -t * -a 0 -s 0 -S UP -v circle -c black -i black
n -t * -a 18 -s 18 -S UP -v circle -c black -i black
n -t * -a 1 -s 1 -S UP -v circle -c black -i black
n -t * -a 20 -s 20 -S UP -v circle -c black -i black
n -t * -a 19 -s 19 -S UP -v circle -c black -i black
n -t * -a 2 -s 2 -S UP -v circle -c black -i black
n -t * -a 3 -s 3 -S UP -v circle -c black -i black
n -t * -a 22 -s 22 -S UP -v circle -c black -i black
n -t * -a 4 -s 4 -S UP -v circle -c black -i black
n -t * -a 5 -s 5 -S UP -v circle -c black -i black
n -t * -a 6 -s 6 -S UP -v circle -c black -i black
n -t * -a 7 -s 7 -S UP -v circle -c black -i black
n -t * -a 8 -s 8 -S UP -v circle -c black -i black
n -t * -a 9 -s 9 -S UP -v circle -c black -i black
n -t * -a 10 -s 10 -S UP -v circle -c black -i black
n -t * -a 11 -s 11 -S UP -v circle -c black -i black
n -t * -a 12 -s 12 -S UP -v circle -c black -i black
n -t * -a 13 -s 13 -S UP -v circle -c black -i black
n -t * -a 14 -s 14 -S UP -v circle -c black -i black
n -t * -a 15 -s 15 -S UP -v circle -c black -i black
n -t * -a 16 -s 16 -S UP -v circle -c black -i black
l -t * -s 22 -d 0 -S UP -r 10000000 -D 0.002 -c black -o right
X -t * -n 21 -r 1Mb -D 0ms -o left
L -t * -s 21 -d 0 -o up
L -t * -s 21 -d 1 -o down
L -t * -s 21 -d 2 -o up
L -t * -s 21 -d 3 -o down
L -t * -s 21 -d 4 -o up
L -t * -s 21 -d 5 -o down
L -t * -s 21 -d 6 -o up
L -t * -s 21 -d 7 -o down
L -t * -s 21 -d 8 -o up
L -t * -s 21 -d 9 -o down
L -t * -s 21 -d 10 -o up
L -t * -s 21 -d 11 -o down
L -t * -s 21 -d 12 -o up
L -t * -s 21 -d 13 -o down
L -t * -s 21 -d 14 -o up
L -t * -s 21 -d 15 -o down
L -t * -s 21 -d 16 -o up
L -t * -s 21 -d 17 -o down
L -t * -s 21 -d 18 -o up
L -t * -s 21 -d 19 -o down
L -t * -s 21 -d 20 -o up
h -t 0.5 -s 1 -d 21 -p cbr -e 1000 -c 0 -i 0 -a 0 -x {1.0 0.0 0 ------- null}
h -t 0.5 -s 2 -d 21 -p cbr -e 1000 -c 0 -i 1 -a 0 -x {2.0 0.1 0 ------- null}
h -t 0.5 -s 3 -d 21 -p cbr -e 1000 -c 0 -i 2 -a 0 -x {3.0 0.2 0 ------- null}
h -t 0.5 -s 4 -d 21 -p cbr -e 1000 -c 0 -i 3 -a 0 -x {4.0 0.3 0 ------- null}
h -t 0.5 -s 5 -d 21 -p cbr -e 1000 -c 0 -i 4 -a 0 -x {5.0 0.4 0 ------- null}
h -t 0.5 -s 6 -d 21 -p cbr -e 1000 -c 0 -i 5 -a 0 -x {6.0 0.5 0 ------- null}
h -t 0.5 -s 7 -d 21 -p cbr -e 1000 -c 0 -i 6 -a 0 -x {7.0 0.6 0 ------- null}
h -t 0.5 -s 8 -d 21 -p cbr -e 1000 -c 0 -i 7 -a 0 -x {8.0 0.7 0 ------- null}
h -t 0.5 -s 9 -d 21 -p cbr -e 1000 -c 0 -i 8 -a 0 -x {9.0 0.8 0 ------- null}
h -t 0.5 -s 10 -d 21 -p cbr -e 1000 -c 0 -i 9 -a 0 -x {10.0 0.9 0 ------- null}
h -t 0.5 -s 11 -d 21 -p cbr -e 1000 -c 0 -i 10 -a 0 -x {11.0 0.10 0 ------- null}
h -t 0.5 -s 12 -d 21 -p cbr -e 1000 -c 0 -i 11 -a 0 -x {12.0 0.11 0 ------- null}
h -t 0.5 -s 13 -d 21 -p cbr -e 1000 -c 0 -i 12 -a 0 -x {13.0 0.12 0 ------- null}
h -t 0.5 -s 14 -d 21 -p cbr -e 1000 -c 0 -i 13 -a 0 -x {14.0 0.13 0 ------- null}
h -t 0.5 -s 15 -d 21 -p cbr -e 1000 -c 0 -i 14 -a 0 -x {15.0 0.14 0 ------- null}
h -t 0.5 -s 16 -d 21 -p cbr -e 1000 -c 0 -i 15 -a 0 -x {16.0 0.15 0 ------- null}
h -t 0.5 -s 17 -d 21 -p cbr -e 1000 -c 0 -i 16 -a 0 -x {17.0 0.16 0 ------- null}
h -t 0.5 -s 18 -d 21 -p cbr -e 1000 -c 0 -i 17 -a 0 -x {18.0 0.17 0 ------- null}
h -t 0.5 -s 19 -d 21 -p cbr -e 1000 -c 0 -i 18 -a 0 -x {19.0 0.18 0 ------- null}
h -t 0.5 -s 20 -d 21 -p cbr -e 1000 -c 0 -i 19 -a 0 -x {20.0 0.19 0 ------- null}
+ -t 0.5 -s 1 -d 21 -p cbr -e 1000 -c 0 -i 0 -a 0 -x {1.0 0.0 0 ------- null}
- -t 0.5 -s 1 -d 21 -p cbr -e 1000 -c 0 -i 0 -a 0 -x {1.0 0.0 0 ------- null}
h -t 0.5 -s 1 -d 21 -p cbr -e 1000 -c 0 -i 0 -a 0 -x {1.0 0.0 -1 ------- null}
+ -t 0.5 -s 2 -d 21 -p cbr -e 1000 -c 0 -i 1 -a 0 -x {2.0 0.1 0 ------- null}
- -t 0.5 -s 2 -d 21 -p cbr -e 1000 -c 0 -i 1 -a 0 -x {2.0 0.1 0 ------- null}
h -t 0.5 -s 2 -d 21 -p cbr -e 1000 -c 0 -i 1 -a 0 -x {2.0 0.1 -1 ------- null}
+ -t 0.5 -s 3 -d 21 -p cbr -e 1000 -c 0 -i 2 -a 0 -x {3.0 0.2 0 ------- null}
- -t 0.5 -s 3 -d 21 -p cbr -e 1000 -c 0 -i 2 -a 0 -x {3.0 0.2 0 ------- null}
h -t 0.5 -s 3 -d 21 -p cbr -e 1000 -c 0 -i 2 -a 0 -x {3.0 0.2 -1 ------- null}
+ -t 0.5 -s 4 -d 21 -p cbr -e 1000 -c 0 -i 3 -a 0 -x {4.0 0.3 0 ------- null}
- -t 0.5 -s 4 -d 21 -p cbr -e 1000 -c 0 -i 3 -a 0 -x {4.0 0.3 0 ------- null}
h -t 0.5 -s 4 -d 21 -p cbr -e 1000 -c 0 -i 3 -a 0 -x {4.0 0.3 -1 ------- null}
+ -t 0.5 -s 5 -d 21 -p cbr -e 1000 -c 0 -i 4 -a 0 -x {5.0 0.4 0 ------- null}
- -t 0.5 -s 5 -d 21 -p cbr -e 1000 -c 0 -i 4 -a 0 -x {5.0 0.4 0 ------- null}
h -t 0.5 -s 5 -d 21 -p cbr -e 1000 -c 0 -i 4 -a 0 -x {5.0 0.4 -1 ------- null}
+ -t 0.5 -s 6 -d 21 -p cbr -e 1000 -c 0 -i 5 -a 0 -x {6.0 0.5 0 ------- null}
- -t 0.5 -s 6 -d 21 -p cbr -e 1000 -c 0 -i 5 -a 0 -x {6.0 0.5 0 ------- null}
h -t 0.5 -s 6 -d 21 -p cbr -e 1000 -c 0 -i 5 -a 0 -x {6.0 0.5 -1 ------- null}
+ -t 0.5 -s 7 -d 21 -p cbr -e 1000 -c 0 -i 6 -a 0 -x {7.0 0.6 0 ------- null}
- -t 0.5 -s 7 -d 21 -p cbr -e 1000 -c 0 -i 6 -a 0 -x {7.0 0.6 0 ------- null}
h -t 0.5 -s 7 -d 21 -p cbr -e 1000 -c 0 -i 6 -a 0 -x {7.0 0.6 -1 ------- null}
+ -t 0.5 -s 8 -d 21 -p cbr -e 1000 -c 0 -i 7 -a 0 -x {8.0 0.7 0 ------- null}
- -t 0.5 -s 8 -d 21 -p cbr -e 1000 -c 0 -i 7 -a 0 -x {8.0 0.7 0 ------- null}
h -t 0.5 -s 8 -d 21 -p cbr -e 1000 -c 0 -i 7 -a 0 -x {8.0 0.7 -1 ------- null}
+ -t 0.5 -s 9 -d 21 -p cbr -e 1000 -c 0 -i 8 -a 0 -x {9.0 0.8 0 ------- null}
- -t 0.5 -s 9 -d 21 -p cbr -e 1000 -c 0 -i 8 -a 0 -x {9.0 0.8 0 ------- null}
h -t 0.5 -s 9 -d 21 -p cbr -e 1000 -c 0 -i 8 -a 0 -x {9.0 0.8 -1 ------- null}
+ -t 0.5 -s 10 -d 21 -p cbr -e 1000 -c 0 -i 9 -a 0 -x {10.0 0.9 0 ------- null}
- -t 0.5 -s 10 -d 21 -p cbr -e 1000 -c 0 -i 9 -a 0 -x {10.0 0.9 0 ------- null}
h -t 0.5 -s 10 -d 21 -p cbr -e 1000 -c 0 -i 9 -a 0 -x {10.0 0.9 -1 ------- null}
+ -t 0.5 -s 11 -d 21 -p cbr -e 1000 -c 0 -i 10 -a 0 -x {11.0 0.10 0 ------- null}
- -t 0.5 -s 11 -d 21 -p cbr -e 1000 -c 0 -i 10 -a 0 -x {11.0 0.10 0 ------- null}
h -t 0.5 -s 11 -d 21 -p cbr -e 1000 -c 0 -i 10 -a 0 -x {11.0 0.10 -1 ------- null}
+ -t 0.5 -s 12 -d 21 -p cbr -e 1000 -c 0 -i 11 -a 0 -x {12.0 0.11 0 ------- null}
- -t 0.5 -s 12 -d 21 -p cbr -e 1000 -c 0 -i 11 -a 0 -x {12.0 0.11 0 ------- null}
h -t 0.5 -s 12 -d 21 -p cbr -e 1000 -c 0 -i 11 -a 0 -x {12.0 0.11 -1 ------- null}
+ -t 0.5 -s 13 -d 21 -p cbr -e 1000 -c 0 -i 12 -a 0 -x {13.0 0.12 0 ------- null}
- -t 0.5 -s 13 -d 21 -p cbr -e 1000 -c 0 -i 12 -a 0 -x {13.0 0.12 0 ------- null}
h -t 0.5 -s 13 -d 21 -p cbr -e 1000 -c 0 -i 12 -a 0 -x {13.0 0.12 -1 ------- null}
+ -t 0.5 -s 14 -d 21 -p cbr -e 1000 -c 0 -i 13 -a 0 -x {14.0 0.13 0 ------- null}
- -t 0.5 -s 14 -d 21 -p cbr -e 1000 -c 0 -i 13 -a 0 -x {14.0 0.13 0 ------- null}
h -t 0.5 -s 14 -d 21 -p cbr -e 1000 -c 0 -i 13 -a 0 -x {14.0 0.13 -1 ------- null}
+ -t 0.5 -s 15 -d 21 -p cbr -e 1000 -c 0 -i 14 -a 0 -x {15.0 0.14 0 ------- null}
- -t 0.5 -s 15 -d 21 -p cbr -e 1000 -c 0 -i 14 -a 0 -x {15.0 0.14 0 ------- null}
h -t 0.5 -s 15 -d 21 -p cbr -e 1000 -c 0 -i 14 -a 0 -x {15.0 0.14 -1 ------- null}
+ -t 0.5 -s 16 -d 21 -p cbr -e 1000 -c 0 -i 15 -a 0 -x {16.0 0.15 0 ------- null}
- -t 0.5 -s 16 -d 21 -p cbr -e 1000 -c 0 -i 15 -a 0 -x {16.0 0.15 0 ------- null}
h -t 0.5 -s 16 -d 21 -p cbr -e 1000 -c 0 -i 15 -a 0 -x {16.0 0.15 -1 ------- null}
+ -t 0.5 -s 17 -d 21 -p cbr -e 1000 -c 0 -i 16 -a 0 -x {17.0 0.16 0 ------- null}
- -t 0.5 -s 17 -d 21 -p cbr -e 1000 -c 0 -i 16 -a 0 -x {17.0 0.16 0 ------- null}
h -t 0.5 -s 17 -d 21 -p cbr -e 1000 -c 0 -i 16 -a 0 -x {17.0 0.16 -1 ------- null}
+ -t 0.5 -s 18 -d 21 -p cbr -e 1000 -c 0 -i 17 -a 0 -x {18.0 0.17 0 ------- null}
- -t 0.5 -s 18 -d 21 -p cbr -e 1000 -c 0 -i 17 -a 0 -x {18.0 0.17 0 ------- null}
h -t 0.5 -s 18 -d 21 -p cbr -e 1000 -c 0 -i 17 -a 0 -x {18.0 0.17 -1 ------- null}
+ -t 0.5 -s 19 -d 21 -p cbr -e 1000 -c 0 -i 18 -a 0 -x {19.0 0.18 0 ------- null}
- -t 0.5 -s 19 -d 21 -p cbr -e 1000 -c 0 -i 18 -a 0 -x {19.0 0.18 0 ------- null}
h -t 0.5 -s 19 -d 21 -p cbr -e 1000 -c 0 -i 18 -a 0 -x {19.0 0.18 -1 ------- null}
+ -t 0.5 -s 20 -d 21 -p cbr -e 1000 -c 0 -i 19 -a 0 -x {20.0 0.19 0 ------- null}
- -t 0.5 -s 20 -d 21 -p cbr -e 1000 -c 0 -i 19 -a 0 -x {20.0 0.19 0 ------- null}
h -t 0.5 -s 20 -d 21 -p cbr -e 1000 -c 0 -i 19 -a 0 -x {20.0 0.19 -1 ------- null}
r -t 0.50838 -s 21 -d 0 -p cbr -e 1000 -c 0 -i 17 -a 0 -x {18.0 0.17 0 ------- null}
r -t 0.518392 -s 21 -d 0 -p cbr -e 1000 -c 0 -i 4 -a 0 -x {5.0 0.4 0 ------- null}
r -t 0.528272 -s 21 -d 0 -p cbr -e 1000 -c 0 -i 0 -a 0 -x {1.0 0.0 0 ------- null}
r -t 0.537128 -s 21 -d 0 -p cbr -e 1000 -c 0 -i 14 -a 0 -x {15.0 0.14 0 ------- null}
r -t 0.546856 -s 21 -d 0 -p cbr -e 1000 -c 0 -i 18 -a 0 -x {19.0 0.18 0 ------- null}
r -t 0.55556 -s 21 -d 0 -p cbr -e 1000 -c 0 -i 15 -a 0 -x {16.0 0.15 0 ------- null}
r -t 0.563904 -s 21 -d 0 -p cbr -e 1000 -c 0 -i 11 -a 0 -x {12.0 0.11 0 ------- null}
r -t 0.572608 -s 21 -d 0 -p cbr -e 1000 -c 0 -i 13 -a 0 -x {14.0 0.13 0 ------- null}
h -t 0.58 -s 1 -d 21 -p cbr -e 1000 -c 0 -i 20 -a 0 -x {1.0 0.0 1 ------- null}
h -t 0.58 -s 2 -d 21 -p cbr -e 1000 -c 0 -i 21 -a 0 -x {2.0 0.1 1 ------- null}
h -t 0.58 -s 3 -d 21 -p cbr -e 1000 -c 0 -i 22 -a 0 -x {3.0 0.2 1 ------- null}
h -t 0.58 -s 4 -d 21 -p cbr -e 1000 -c 0 -i 23 -a 0 -x {4.0 0.3 1 ------- null}
h -t 0.58 -s 5 -d 21 -p cbr -e 1000 -c 0 -i 24 -a 0 -x {5.0 0.4 1 ------- null}
h -t 0.58 -s 6 -d 21 -p cbr -e 1000 -c 0 -i 25 -a 0 -x {6.0 0.5 1 ------- null}
h -t 0.58 -s 7 -d 21 -p cbr -e 1000 -c 0 -i 26 -a 0 -x {7.0 0.6 1 ------- null}
h -t 0.58 -s 8 -d 21 -p cbr -e 1000 -c 0 -i 27 -a 0 -x {8.0 0.7 1 ------- null}
h -t 0.58 -s 9 -d 21 -p cbr -e 1000 -c 0 -i 28 -a 0 -x {9.0 0.8 1 ------- null}
h -t 0.58 -s 10 -d 21 -p cbr -e 1000 -c 0 -i 29 -a 0 -x {10.0 0.9 1 ------- null}
h -t 0.58 -s 11 -d 21 -p cbr -e 1000 -c 0 -i 30 -a 0 -x {11.0 0.10 1 ------- null}
h -t 0.58 -s 12 -d 21 -p cbr -e 1000 -c 0 -i 31 -a 0 -x {12.0 0.11 1 ------- null}
h -t 0.58 -s 13 -d 21 -p cbr -e 1000 -c 0 -i 32 -a 0 -x {13.0 0.12 1 ------- null}
h -t 0.58 -s 14 -d 21 -p cbr -e 1000 -c 0 -i 33 -a 0 -x {14.0 0.13 1 ------- null}
h -t 0.58 -s 15 -d 21 -p cbr -e 1000 -c 0 -i 34 -a 0 -x {15.0 0.14 1 ------- null}
h -t 0.58 -s 16 -d 21 -p cbr -e 1000 -c 0 -i 35 -a 0 -x {16.0 0.15 1 ------- null}
h -t 0.58 -s 17 -d 21 -p cbr -e 1000 -c 0 -i 36 -a 0 -x {17.0 0.16 1 ------- null}
h -t 0.58 -s 18 -d 21 -p cbr -e 1000 -c 0 -i 37 -a 0 -x {18.0 0.17 1 ------- null}
h -t 0.58 -s 19 -d 21 -p cbr -e 1000 -c 0 -i 38 -a 0 -x {19.0 0.18 1 ------- null}
h -t 0.58 -s 20 -d 21 -p cbr -e 1000 -c 0 -i 39 -a 0 -x {20.0 0.19 1 ------- null}
+ -t 0.58 -s 1 -d 21 -p cbr -e 1000 -c 0 -i 20 -a 0 -x {1.0 0.0 1 ------- null}
- -t 0.58 -s 1 -d 21 -p cbr -e 1000 -c 0 -i 20 -a 0 -x {1.0 0.0 1 ------- null}
h -t 0.58 -s 1 -d 21 -p cbr -e 1000 -c 0 -i 20 -a 0 -x {1.0 0.0 -1 ------- null}
+ -t 0.58 -s 2 -d 21 -p cbr -e 1000 -c 0 -i 21 -a 0 -x {2.0 0.1 1 ------- null}
+ -t 0.58 -s 3 -d 21 -p cbr -e 1000 -c 0 -i 22 -a 0 -x {3.0 0.2 1 ------- null}
+ -t 0.58 -s 4 -d 21 -p cbr -e 1000 -c 0 -i 23 -a 0 -x {4.0 0.3 1 ------- null}
+ -t 0.58 -s 5 -d 21 -p cbr -e 1000 -c 0 -i 24 -a 0 -x {5.0 0.4 1 ------- null}
- -t 0.58 -s 5 -d 21 -p cbr -e 1000 -c 0 -i 24 -a 0 -x {5.0 0.4 1 ------- null}
h -t 0.58 -s 5 -d 21 -p cbr -e 1000 -c 0 -i 24 -a 0 -x {5.0 0.4 -1 ------- null}
+ -t 0.58 -s 6 -d 21 -p cbr -e 1000 -c 0 -i 25 -a 0 -x {6.0 0.5 1 ------- null}
+ -t 0.58 -s 7 -d 21 -p cbr -e 1000 -c 0 -i 26 -a 0 -x {7.0 0.6 1 ------- null}
+ -t 0.58 -s 8 -d 21 -p cbr -e 1000 -c 0 -i 27 -a 0 -x {8.0 0.7 1 ------- null}
+ -t 0.58 -s 9 -d 21 -p cbr -e 1000 -c 0 -i 28 -a 0 -x {9.0 0.8 1 ------- null}
+ -t 0.58 -s 10 -d 21 -p cbr -e 1000 -c 0 -i 29 -a 0 -x {10.0 0.9 1 ------- null}
+ -t 0.58 -s 11 -d 21 -p cbr -e 1000 -c 0 -i 30 -a 0 -x {11.0 0.10 1 ------- null}
+ -t 0.58 -s 12 -d 21 -p cbr -e 1000 -c 0 -i 31 -a 0 -x {12.0 0.11 1 ------- null}
- -t 0.58 -s 12 -d 21 -p cbr -e 1000 -c 0 -i 31 -a 0 -x {12.0 0.11 1 ------- null}
h -t 0.58 -s 12 -d 21 -p cbr -e 1000 -c 0 -i 31 -a 0 -x {12.0 0.11 -1 ------- null}
+ -t 0.58 -s 13 -d 21 -p cbr -e 1000 -c 0 -i 32 -a 0 -x {13.0 0.12 1 ------- null}
+ -t 0.58 -s 14 -d 21 -p cbr -e 1000 -c 0 -i 33 -a 0 -x {14.0 0.13 1 ------- null}
- -t 0.58 -s 14 -d 21 -p cbr -e 1000 -c 0 -i 33 -a 0 -x {14.0 0.13 1 ------- null}
h -t 0.58 -s 14 -d 21 -p cbr -e 1000 -c 0 -i 33 -a 0 -x {14.0 0.13 -1 ------- null}
+ -t 0.58 -s 15 -d 21 -p cbr -e 1000 -c 0 -i 34 -a 0 -x {15.0 0.14 1 ------- null}
- -t 0.58 -s 15 -d 21 -p cbr -e 1000 -c 0 -i 34 -a 0 -x {15.0 0.14 1 ------- null}
h -t 0.58 -s 15 -d 21 -p cbr -e 1000 -c 0 -i 34 -a 0 -x {15.0 0.14 -1 ------- null}
+ -t 0.58 -s 16 -d 21 -p cbr -e 1000 -c 0 -i 35 -a 0 -x {16.0 0.15 1 ------- null}
- -t 0.58 -s 16 -d 21 -p cbr -e 1000 -c 0 -i 35 -a 0 -x {16.0 0.15 1 ------- null}
h -t 0.58 -s 16 -d 21 -p cbr -e 1000 -c 0 -i 35 -a 0 -x {16.0 0.15 -1 ------- null}
+ -t 0.58 -s 17 -d 21 -p cbr -e 1000 -c 0 -i 36 -a 0 -x {17.0 0.16 1 ------- null}
+ -t 0.58 -s 18 -d 21 -p cbr -e 1000 -c 0 -i 37 -a 0 -x {18.0 0.17 1 ------- null}
- -t 0.58 -s 18 -d 21 -p cbr -e 1000 -c 0 -i 37 -a 0 -x {18.0 0.17 1 ------- null}
h -t 0.58 -s 18 -d 21 -p cbr -e 1000 -c 0 -i 37 -a 0 -x {18.0 0.17 -1 ------- null}
+ -t 0.58 -s 19 -d 21 -p cbr -e 1000 -c 0 -i 38 -a 0 -x {19.0 0.18 1 ------- null}
- -t 0.58 -s 19 -d 21 -p cbr -e 1000 -c 0 -i 38 -a 0 -x {19.0 0.18 1 ------- null}
h -t 0.58 -s 19 -d 21 -p cbr -e 1000 -c 0 -i 38 -a 0 -x {19.0 0.18 -1 ------- null}
+ -t 0.58 -s 20 -d 21 -p cbr -e 1000 -c 0 -i 39 -a 0 -x {20.0 0.19 1 ------- null}
r -t 0.59018 -s 21 -d 0 -p cbr -e 1000 -c 0 -i 33 -a 0 -x {14.0 0.13 1 ------- null}
r -t 0.599548 -s 21 -d 0 -p cbr -e 1000 -c 0 -i 38 -a 0 -x {19.0 0.18 1 ------- null}
r -t 0.608916 -s 21 -d 0 -p cbr -e 1000 -c 0 -i 20 -a 0 -x {1.0 0.0 1 ------- null}
r -t 0.61884 -s 21 -d 0 -p cbr -e 1000 -c 0 -i 12 -a 0 -x {13.0 0.12 0 ------- null}
- -t 0.618932 -s 13 -d 21 -p cbr -e 1000 -c 0 -i 32 -a 0 -x {13.0 0.12 1 ------- null}
h -t 0.618932 -s 13 -d 21 -p cbr -e 1000 -c 0 -i 32 -a 0 -x {13.0 0.12 -1 ------- null}
r -t 0.627696 -s 21 -d 0 -p cbr -e 1000 -c 0 -i 32 -a 0 -x {13.0 0.12 1 ------- null}
r -t 0.635908 -s 21 -d 0 -p cbr -e 1000 -c 0 -i 31 -a 0 -x {12.0 0.11 1 ------- null}
r -t 0.644396 -s 21 -d 0 -p cbr -e 1000 -c 0 -i 24 -a 0 -x {5.0 0.4 1 ------- null}
r -t 0.652608 -s 21 -d 0 -p cbr -e 1000 -c 0 -i 35 -a 0 -x {16.0 0.15 1 ------- null}
h -t 0.66 -s 1 -d 21 -p cbr -e 1000 -c 0 -i 40 -a 0 -x {1.0 0.0 2 ------- null}
h -t 0.66 -s 2 -d 21 -p cbr -e 1000 -c 0 -i 41 -a 0 -x {2.0 0.1 2 ------- null}
h -t 0.66 -s 3 -d 21 -p cbr -e 1000 -c 0 -i 42 -a 0 -x {3.0 0.2 2 ------- null}
h -t 0.66 -s 4 -d 21 -p cbr -e 1000 -c 0 -i 43 -a 0 -x {4.0 0.3 2 ------- null}
h -t 0.66 -s 5 -d 21 -p cbr -e 1000 -c 0 -i 44 -a 0 -x {5.0 0.4 2 ------- null}
h -t 0.66 -s 6 -d 21 -p cbr -e 1000 -c 0 -i 45 -a 0 -x {6.0 0.5 2 ------- null}
h -t 0.66 -s 7 -d 21 -p cbr -e 1000 -c 0 -i 46 -a 0 -x {7.0 0.6 2 ------- null}
h -t 0.66 -s 8 -d 21 -p cbr -e 1000 -c 0 -i 47 -a 0 -x {8.0 0.7 2 ------- null}
h -t 0.66 -s 9 -d 21 -p cbr -e 1000 -c 0 -i 48 -a 0 -x {9.0 0.8 2 ------- null}
h -t 0.66 -s 10 -d 21 -p cbr -e 1000 -c 0 -i 49 -a 0 -x {10.0 0.9 2 ------- null}
h -t 0.66 -s 11 -d 21 -p cbr -e 1000 -c 0 -i 50 -a 0 -x {11.0 0.10 2 ------- null}
h -t 0.66 -s 12 -d 21 -p cbr -e 1000 -c 0 -i 51 -a 0 -x {12.0 0.11 2 ------- null}
h -t 0.66 -s 13 -d 21 -p cbr -e 1000 -c 0 -i 52 -a 0 -x {13.0 0.12 2 ------- null}
h -t 0.66 -s 14 -d 21 -p cbr -e 1000 -c 0 -i 53 -a 0 -x {14.0 0.13 2 ------- null}
h -t 0.66 -s 15 -d 21 -p cbr -e 1000 -c 0 -i 54 -a 0 -x {15.0 0.14 2 ------- null}
h -t 0.66 -s 16 -d 21 -p cbr -e 1000 -c 0 -i 55 -a 0 -x {16.0 0.15 2 ------- null}
h -t 0.66 -s 17 -d 21 -p cbr -e 1000 -c 0 -i 56 -a 0 -x {17.0 0.16 2 ------- null}
h -t 0.66 -s 18 -d 21 -p cbr -e 1000 -c 0 -i 57 -a 0 -x {18.0 0.17 2 ------- null}
h -t 0.66 -s 19 -d 21 -p cbr -e 1000 -c 0 -i 58 -a 0 -x {19.0 0.18 2 ------- null}
h -t 0.66 -s 20 -d 21 -p cbr -e 1000 -c 0 -i 59 -a 0 -x {20.0 0.19 2 ------- null}
+ -t 0.66 -s 1 -d 21 -p cbr -e 1000 -c 0 -i 40 -a 0 -x {1.0 0.0 2 ------- null}
- -t 0.66 -s 1 -d 21 -p cbr -e 1000 -c 0 -i 40 -a 0 -x {1.0 0.0 2 ------- null}
h -t 0.66 -s 1 -d 21 -p cbr -e 1000 -c 0 -i 40 -a 0 -x {1.0 0.0 -1 ------- null}
+ -t 0.66 -s 2 -d 21 -p cbr -e 1000 -c 0 -i 41 -a 0 -x {2.0 0.1 2 ------- null}
+ -t 0.66 -s 3 -d 21 -p cbr -e 1000 -c 0 -i 42 -a 0 -x {3.0 0.2 2 ------- null}
+ -t 0.66 -s 4 -d 21 -p cbr -e 1000 -c 0 -i 43 -a 0 -x {4.0 0.3 2 ------- null}
+ -t 0.66 -s 5 -d 21 -p cbr -e 1000 -c 0 -i 44 -a 0 -x {5.0 0.4 2 ------- null}
- -t 0.66 -s 5 -d 21 -p cbr -e 1000 -c 0 -i 44 -a 0 -x {5.0 0.4 2 ------- null}
h -t 0.66 -s 5 -d 21 -p cbr -e 1000 -c 0 -i 44 -a 0 -x {5.0 0.4 -1 ------- null}
+ -t 0.66 -s 6 -d 21 -p cbr -e 1000 -c 0 -i 45 -a 0 -x {6.0 0.5 2 ------- null}
+ -t 0.66 -s 7 -d 21 -p cbr -e 1000 -c 0 -i 46 -a 0 -x {7.0 0.6 2 ------- null}
+ -t 0.66 -s 8 -d 21 -p cbr -e 1000 -c 0 -i 47 -a 0 -x {8.0 0.7 2 ------- null}
+ -t 0.66 -s 9 -d 21 -p cbr -e 1000 -c 0 -i 48 -a 0 -x {9.0 0.8 2 ------- null}
+ -t 0.66 -s 10 -d 21 -p cbr -e 1000 -c 0 -i 49 -a 0 -x {10.0 0.9 2 ------- null}
+ -t 0.66 -s 11 -d 21 -p cbr -e 1000 -c 0 -i 50 -a 0 -x {11.0 0.10 2 ------- null}
+ -t 0.66 -s 12 -d 21 -p cbr -e 1000 -c 0 -i 51 -a 0 -x {12.0 0.11 2 ------- null}
- -t 0.66 -s 12 -d 21 -p cbr -e 1000 -c 0 -i 51 -a 0 -x {12.0 0.11 2 ------- null}
h -t 0.66 -s 12 -d 21 -p cbr -e 1000 -c 0 -i 51 -a 0 -x {12.0 0.11 -1 ------- null}
+ -t 0.66 -s 13 -d 21 -p cbr -e 1000 -c 0 -i 52 -a 0 -x {13.0 0.12 2 ------- null}
- -t 0.66 -s 13 -d 21 -p cbr -e 1000 -c 0 -i 52 -a 0 -x {13.0 0.12 2 ------- null}
h -t 0.66 -s 13 -d 21 -p cbr -e 1000 -c 0 -i 52 -a 0 -x {13.0 0.12 -1 ------- null}
+ -t 0.66 -s 14 -d 21 -p cbr -e 1000 -c 0 -i 53 -a 0 -x {14.0 0.13 2 ------- null}
- -t 0.66 -s 14 -d 21 -p cbr -e 1000 -c 0 -i 53 -a 0 -x {14.0 0.13 2 ------- null}
h -t 0.66 -s 14 -d 21 -p cbr -e 1000 -c 0 -i 53 -a 0 -x {14.0 0.13 -1 ------- null}
+ -t 0.66 -s 15 -d 21 -p cbr -e 1000 -c 0 -i 54 -a 0 -x {15.0 0.14 2 ------- null}
+ -t 0.66 -s 16 -d 21 -p cbr -e 1000 -c 0 -i 55 -a 0 -x {16.0 0.15 2 ------- null}
- -t 0.66 -s 16 -d 21 -p cbr -e 1000 -c 0 -i 55 -a 0 -x {16.0 0.15 2 ------- null}
h -t 0.66 -s 16 -d 21 -p cbr -e 1000 -c 0 -i 55 -a 0 -x {16.0 0.15 -1 ------- null}
+ -t 0.66 -s 17 -d 21 -p cbr -e 1000 -c 0 -i 56 -a 0 -x {17.0 0.16 2 ------- null}
+ -t 0.66 -s 18 -d 21 -p cbr -e 1000 -c 0 -i 57 -a 0 -x {18.0 0.17 2 ------- null}
+ -t 0.66 -s 19 -d 21 -p cbr -e 1000 -c 0 -i 58 -a 0 -x {19.0 0.18 2 ------- null}
- -t 0.66 -s 19 -d 21 -p cbr -e 1000 -c 0 -i 58 -a 0 -x {19.0 0.18 2 ------- null}
h -t 0.66 -s 19 -d 21 -p cbr -e 1000 -c 0 -i 58 -a 0 -x {19.0 0.18 -1 ------- null}
+ -t 0.66 -s 20 -d 21 -p cbr -e 1000 -c 0 -i 59 -a 0 -x {20.0 0.19 2 ------- null}
r -t 0.664024 -s 21 -d 0 -p cbr -e 1000 -c 0 -i 1 -a 0 -x {2.0 0.1 0 ------- null}
- -t 0.664116 -s 2 -d 21 -p cbr -e 1000 -c 0 -i 21 -a 0 -x {2.0 0.1 1 ------- null}
h -t 0.664116 -s 2 -d 21 -p cbr -e 1000 -c 0 -i 21 -a 0 -x {2.0 0.1 -1 ------- null}
r -t 0.673008 -s 21 -d 0 -p cbr -e 1000 -c 0 -i 53 -a 0 -x {14.0 0.13 2 ------- null}
r -t 0.681352 -s 21 -d 0 -p cbr -e 1000 -c 0 -i 55 -a 0 -x {16.0 0.15 2 ------- null}
r -t 0.689696 -s 21 -d 0 -p cbr -e 1000 -c 0 -i 44 -a 0 -x {5.0 0.4 2 ------- null}
r -t 0.699064 -s 21 -d 0 -p cbr -e 1000 -c 0 -i 40 -a 0 -x {1.0 0.0 2 ------- null}
r -t 0.70828 -s 21 -d 0 -p cbr -e 1000 -c 0 -i 51 -a 0 -x {12.0 0.11 2 ------- null}
r -t 0.717648 -s 21 -d 0 -p cbr -e 1000 -c 0 -i 58 -a 0 -x {19.0 0.18 2 ------- null}
r -t 0.726352 -s 21 -d 0 -p cbr -e 1000 -c 0 -i 21 -a 0 -x {2.0 0.1 1 ------- null}
- -t 0.726444 -s 2 -d 21 -p cbr -e 1000 -c 0 -i 41 -a 0 -x {2.0 0.1 2 ------- null}
h -t 0.726444 -s 2 -d 21 -p cbr -e 1000 -c 0 -i 41 -a 0 -x {2.0 0.1 -1 ------- null}
r -t 0.735208 -s 21 -d 0 -p cbr -e 1000 -c 0 -i 41 -a 0 -x {2.0 0.1 2 ------- null}
h -t 0.74 -s 1 -d 21 -p cbr -e 1000 -c 0 -i 60 -a 0 -x {1.0 0.0 3 ------- null}
h -t 0.74 -s 2 -d 21 -p cbr -e 1000 -c 0 -i 61 -a 0 -x {2.0 0.1 3 ------- null}
h -t 0.74 -s 3 -d 21 -p cbr -e 1000 -c 0 -i 62 -a 0 -x {3.0 0.2 3 ------- null}
h -t 0.74 -s 4 -d 21 -p cbr -e 1000 -c 0 -i 63 -a 0 -x {4.0 0.3 3 ------- null}
h -t 0.74 -s 5 -d 21 -p cbr -e 1000 -c 0 -i 64 -a 0 -x {5.0 0.4 3 ------- null}
h -t 0.74 -s 6 -d 21 -p cbr -e 1000 -c 0 -i 65 -a 0 -x {6.0 0.5 3 ------- null}
h -t 0.74 -s 7 -d 21 -p cbr -e 1000 -c 0 -i 66 -a 0 -x {7.0 0.6 3 ------- null}
h -t 0.74 -s 8 -d 21 -p cbr -e 1000 -c 0 -i 67 -a 0 -x {8.0 0.7 3 ------- null}
h -t 0.74 -s 9 -d 21 -p cbr -e 1000 -c 0 -i 68 -a 0 -x {9.0 0.8 3 ------- null}
h -t 0.74 -s 10 -d 21 -p cbr -e 1000 -c 0 -i 69 -a 0 -x {10.0 0.9 3 ------- null}
h -t 0.74 -s 11 -d 21 -p cbr -e 1000 -c 0 -i 70 -a 0 -x {11.0 0.10 3 ------- null}
h -t 0.74 -s 12 -d 21 -p cbr -e 1000 -c 0 -i 71 -a 0 -x {12.0 0.11 3 ------- null}
h -t 0.74 -s 13 -d 21 -p cbr -e 1000 -c 0 -i 72 -a 0 -x {13.0 0.12 3 ------- null}
h -t 0.74 -s 14 -d 21 -p cbr -e 1000 -c 0 -i 73 -a 0 -x {14.0 0.13 3 ------- null}
h -t 0.74 -s 15 -d 21 -p cbr -e 1000 -c 0 -i 74 -a 0 -x {15.0 0.14 3 ------- null}
h -t 0.74 -s 16 -d 21 -p cbr -e 1000 -c 0 -i 75 -a 0 -x {16.0 0.15 3 ------- null}
h -t 0.74 -s 17 -d 21 -p cbr -e 1000 -c 0 -i 76 -a 0 -x {17.0 0.16 3 ------- null}
h -t 0.74 -s 18 -d 21 -p cbr -e 1000 -c 0 -i 77 -a 0 -x {18.0 0.17 3 ------- null}
h -t 0.74 -s 19 -d 21 -p cbr -e 1000 -c 0 -i 78 -a 0 -x {19.0 0.18 3 ------- null}
h -t 0.74 -s 20 -d 21 -p cbr -e 1000 -c 0 -i 79 -a 0 -x {20.0 0.19 3 ------- null}
+ -t 0.74 -s 1 -d 21 -p cbr -e 1000 -c 0 -i 60 -a 0 -x {1.0 0.0 3 ------- null}
- -t 0.74 -s 1 -d 21 -p cbr -e 1000 -c 0 -i 60 -a 0 -x {1.0 0.0 3 ------- null}
h -t 0.74 -s 1 -d 21 -p cbr -e 1000 -c 0 -i 60 -a 0 -x {1.0 0.0 -1 ------- null}
+ -t 0.74 -s 2 -d 21 -p cbr -e 1000 -c 0 -i 61 -a 0 -x {2.0 0.1 3 ------- null}
- -t 0.74 -s 2 -d 21 -p cbr -e 1000 -c 0 -i 61 -a 0 -x {2.0 0.1 3 ------- null}
h -t 0.74 -s 2 -d 21 -p cbr -e 1000 -c 0 -i 61 -a 0 -x {2.0 0.1 -1 ------- null}
+ -t 0.74 -s 3 -d 21 -p cbr -e 1000 -c 0 -i 62 -a 0 -x {3.0 0.2 3 ------- null}
+ -t 0.74 -s 4 -d 21 -p cbr -e 1000 -c 0 -i 63 -a 0 -x {4.0 0.3 3 ------- null}
+ -t 0.74 -s 5 -d 21 -p cbr -e 1000 -c 0 -i 64 -a 0 -x {5.0 0.4 3 ------- null}
- -t 0.74 -s 5 -d 21 -p cbr -e 1000 -c 0 -i 64 -a 0 -x {5.0 0.4 3 ------- null}
h -t 0.74 -s 5 -d 21 -p cbr -e 1000 -c 0 -i 64 -a 0 -x {5.0 0.4 -1 ------- null}
+ -t 0.74 -s 6 -d 21 -p cbr -e 1000 -c 0 -i 65 -a 0 -x {6.0 0.5 3 ------- null}
+ -t 0.74 -s 7 -d 21 -p cbr -e 1000 -c 0 -i 66 -a 0 -x {7.0 0.6 3 ------- null}
+ -t 0.74 -s 8 -d 21 -p cbr -e 1000 -c 0 -i 67 -a 0 -x {8.0 0.7 3 ------- null}
+ -t 0.74 -s 9 -d 21 -p cbr -e 1000 -c 0 -i 68 -a 0 -x {9.0 0.8 3 ------- null}
+ -t 0.74 -s 10 -d 21 -p cbr -e 1000 -c 0 -i 69 -a 0 -x {10.0 0.9 3 ------- null}
+ -t 0.74 -s 11 -d 21 -p cbr -e 1000 -c 0 -i 70 -a 0 -x {11.0 0.10 3 ------- null}
+ -t 0.74 -s 12 -d 21 -p cbr -e 1000 -c 0 -i 71 -a 0 -x {12.0 0.11 3 ------- null}
- -t 0.74 -s 12 -d 21 -p cbr -e 1000 -c 0 -i 71 -a 0 -x {12.0 0.11 3 ------- null}
h -t 0.74 -s 12 -d 21 -p cbr -e 1000 -c 0 -i 71 -a 0 -x {12.0 0.11 -1 ------- null}
+ -t 0.74 -s 13 -d 21 -p cbr -e 1000 -c 0 -i 72 -a 0 -x {13.0 0.12 3 ------- null}
+ -t 0.74 -s 14 -d 21 -p cbr -e 1000 -c 0 -i 73 -a 0 -x {14.0 0.13 3 ------- null}
- -t 0.74 -s 14 -d 21 -p cbr -e 1000 -c 0 -i 73 -a 0 -x {14.0 0.13 3 ------- null}
h -t 0.74 -s 14 -d 21 -p cbr -e 1000 -c 0 -i 73 -a 0 -x {14.0 0.13 -1 ------- null}
+ -t 0.74 -s 15 -d 21 -p cbr -e 1000 -c 0 -i 74 -a 0 -x {15.0 0.14 3 ------- null}
+ -t 0.74 -s 16 -d 21 -p cbr -e 1000 -c 0 -i 75 -a 0 -x {16.0 0.15 3 ------- null}
- -t 0.74 -s 16 -d 21 -p cbr -e 1000 -c 0 -i 75 -a 0 -x {16.0 0.15 3 ------- null}
h -t 0.74 -s 16 -d 21 -p cbr -e 1000 -c 0 -i 75 -a 0 -x {16.0 0.15 -1 ------- null}
+ -t 0.74 -s 17 -d 21 -p cbr -e 1000 -c 0 -i 76 -a 0 -x {17.0 0.16 3 ------- null}
+ -t 0.74 -s 18 -d 21 -p cbr -e 1000 -c 0 -i 77 -a 0 -x {18.0 0.17 3 ------- null}
+ -t 0.74 -s 19 -d 21 -p cbr -e 1000 -c 0 -i 78 -a 0 -x {19.0 0.18 3 ------- null}
- -t 0.74 -s 19 -d 21 -p cbr -e 1000 -c 0 -i 78 -a 0 -x {19.0 0.18 3 ------- null}
h -t 0.74 -s 19 -d 21 -p cbr -e 1000 -c 0 -i 78 -a 0 -x {19.0 0.18 -1 ------- null}
+ -t 0.74 -s 20 -d 21 -p cbr -e 1000 -c 0 -i 79 -a 0 -x {20.0 0.19 3 ------- null}
r -t 0.74342 -s 21 -d 0 -p cbr -e 1000 -c 0 -i 52 -a 0 -x {13.0 0.12 2 ------- null}
- -t 0.743512 -s 13 -d 21 -p cbr -e 1000 -c 0 -i 72 -a 0 -x {13.0 0.12 3 ------- null}
h -t 0.743512 -s 13 -d 21 -p cbr -e 1000 -c 0 -i 72 -a 0 -x {13.0 0.12 -1 ------- null}
r -t 0.751892 -s 21 -d 0 -p cbr -e 1000 -c 0 -i 73 -a 0 -x {14.0 0.13 3 ------- null}
r -t 0.760236 -s 21 -d 0 -p cbr -e 1000 -c 0 -i 71 -a 0 -x {12.0 0.11 3 ------- null}
r -t 0.770116 -s 21 -d 0 -p cbr -e 1000 -c 0 -i 61 -a 0 -x {2.0 0.1 3 ------- null}
r -t 0.778972 -s 21 -d 0 -p cbr -e 1000 -c 0 -i 72 -a 0 -x {13.0 0.12 3 ------- null}
r -t 0.797404 -s 21 -d 0 -p cbr -e 1000 -c 0 -i 60 -a 0 -x {1.0 0.0 3 ------- null}
r -t 0.80626 -s 21 -d 0 -p cbr -e 1000 -c 0 -i 78 -a 0 -x {19.0 0.18 3 ------- null}
r -t 0.814472 -s 21 -d 0 -p cbr -e 1000 -c 0 -i 75 -a 0 -x {16.0 0.15 3 ------- null}
h -t 0.82 -s 1 -d 21 -p cbr -e 1000 -c 0 -i 80 -a 0 -x {1.0 0.0 4 ------- null}
h -t 0.82 -s 2 -d 21 -p cbr -e 1000 -c 0 -i 81 -a 0 -x {2.0 0.1 4 ------- null}
h -t 0.82 -s 3 -d 21 -p cbr -e 1000 -c 0 -i 82 -a 0 -x {3.0 0.2 4 ------- null}
h -t 0.82 -s 4 -d 21 -p cbr -e 1000 -c 0 -i 83 -a 0 -x {4.0 0.3 4 ------- null}
h -t 0.82 -s 5 -d 21 -p cbr -e 1000 -c 0 -i 84 -a 0 -x {5.0 0.4 4 ------- null}
h -t 0.82 -s 6 -d 21 -p cbr -e 1000 -c 0 -i 85 -a 0 -x {6.0 0.5 4 ------- null}
h -t 0.82 -s 7 -d 21 -p cbr -e 1000 -c 0 -i 86 -a 0 -x {7.0 0.6 4 ------- null}
h -t 0.82 -s 8 -d 21 -p cbr -e 1000 -c 0 -i 87 -a 0 -x {8.0 0.7 4 ------- null}
h -t 0.82 -s 9 -d 21 -p cbr -e 1000 -c 0 -i 88 -a 0 -x {9.0 0.8 4 ------- null}
h -t 0.82 -s 10 -d 21 -p cbr -e 1000 -c 0 -i 89 -a 0 -x {10.0 0.9 4 ------- null}
h -t 0.82 -s 11 -d 21 -p cbr -e 1000 -c 0 -i 90 -a 0 -x {11.0 0.10 4 ------- null}
h -t 0.82 -s 12 -d 21 -p cbr -e 1000 -c 0 -i 91 -a 0 -x {12.0 0.11 4 ------- null}
h -t 0.82 -s 13 -d 21 -p cbr -e 1000 -c 0 -i 92 -a 0 -x {13.0 0.12 4 ------- null}
h -t 0.82 -s 14 -d 21 -p cbr -e 1000 -c 0 -i 93 -a 0 -x {14.0 0.13 4 ------- null}
h -t 0.82 -s 15 -d 21 -p cbr -e 1000 -c 0 -i 94 -a 0 -x {15.0 0.14 4 ------- null}
h -t 0.82 -s 16 -d 21 -p cbr -e 1000 -c 0 -i 95 -a 0 -x {16.0 0.15 4 ------- null}
h -t 0.82 -s 17 -d 21 -p cbr -e 1000 -c 0 -i 96 -a 0 -x {17.0 0.16 4 ------- null}
h -t 0.82 -s 18 -d 21 -p cbr -e 1000 -c 0 -i 97 -a 0 -x {18.0 0.17 4 ------- null}
h -t 0.82 -s 19 -d 21 -p cbr -e 1000 -c 0 -i 98 -a 0 -x {19.0 0.18 4 ------- null}
h -t 0.82 -s 20 -d 21 -p cbr -e 1000 -c 0 -i 99 -a 0 -x {20.0 0.19 4 ------- null}
+ -t 0.82 -s 1 -d 21 -p cbr -e 1000 -c 0 -i 80 -a 0 -x {1.0 0.0 4 ------- null}
- -t 0.82 -s 1 -d 21 -p cbr -e 1000 -c 0 -i 80 -a 0 -x {1.0 0.0 4 ------- null}
h -t 0.82 -s 1 -d 21 -p cbr -e 1000 -c 0 -i 80 -a 0 -x {1.0 0.0 -1 ------- null}
+ -t 0.82 -s 2 -d 21 -p cbr -e 1000 -c 0 -i 81 -a 0 -x {2.0 0.1 4 ------- null}
- -t 0.82 -s 2 -d 21 -p cbr -e 1000 -c 0 -i 81 -a 0 -x {2.0 0.1 4 ------- null}
h -t 0.82 -s 2 -d 21 -p cbr -e 1000 -c 0 -i 81 -a 0 -x {2.0 0.1 -1 ------- null}
+ -t 0.82 -s 3 -d 21 -p cbr -e 1000 -c 0 -i 82 -a 0 -x {3.0 0.2 4 ------- null}
+ -t 0.82 -s 4 -d 21 -p cbr -e 1000 -c 0 -i 83 -a 0 -x {4.0 0.3 4 ------- null}
+ -t 0.82 -s 5 -d 21 -p cbr -e 1000 -c 0 -i 84 -a 0 -x {5.0 0.4 4 ------- null}
+ -t 0.82 -s 6 -d 21 -p cbr -e 1000 -c 0 -i 85 -a 0 -x {6.0 0.5 4 ------- null}
+ -t 0.82 -s 7 -d 21 -p cbr -e 1000 -c 0 -i 86 -a 0 -x {7.0 0.6 4 ------- null}
+ -t 0.82 -s 8 -d 21 -p cbr -e 1000 -c 0 -i 87 -a 0 -x {8.0 0.7 4 ------- null}
+ -t 0.82 -s 9 -d 21 -p cbr -e 1000 -c 0 -i 88 -a 0 -x {9.0 0.8 4 ------- null}
+ -t 0.82 -s 10 -d 21 -p cbr -e 1000 -c 0 -i 89 -a 0 -x {10.0 0.9 4 ------- null}
+ -t 0.82 -s 11 -d 21 -p cbr -e 1000 -c 0 -i 90 -a 0 -x {11.0 0.10 4 ------- null}
+ -t 0.82 -s 12 -d 21 -p cbr -e 1000 -c 0 -i 91 -a 0 -x {12.0 0.11 4 ------- null}
- -t 0.82 -s 12 -d 21 -p cbr -e 1000 -c 0 -i 91 -a 0 -x {12.0 0.11 4 ------- null}
h -t 0.82 -s 12 -d 21 -p cbr -e 1000 -c 0 -i 91 -a 0 -x {12.0 0.11 -1 ------- null}
+ -t 0.82 -s 13 -d 21 -p cbr -e 1000 -c 0 -i 92 -a 0 -x {13.0 0.12 4 ------- null}
- -t 0.82 -s 13 -d 21 -p cbr -e 1000 -c 0 -i 92 -a 0 -x {13.0 0.12 4 ------- null}
h -t 0.82 -s 13 -d 21 -p cbr -e 1000 -c 0 -i 92 -a 0 -x {13.0 0.12 -1 ------- null}
+ -t 0.82 -s 14 -d 21 -p cbr -e 1000 -c 0 -i 93 -a 0 -x {14.0 0.13 4 ------- null}
- -t 0.82 -s 14 -d 21 -p cbr -e 1000 -c 0 -i 93 -a 0 -x {14.0 0.13 4 ------- null}
h -t 0.82 -s 14 -d 21 -p cbr -e 1000 -c 0 -i 93 -a 0 -x {14.0 0.13 -1 ------- null}
+ -t 0.82 -s 15 -d 21 -p cbr -e 1000 -c 0 -i 94 -a 0 -x {15.0 0.14 4 ------- null}
+ -t 0.82 -s 16 -d 21 -p cbr -e 1000 -c 0 -i 95 -a 0 -x {16.0 0.15 4 ------- null}
- -t 0.82 -s 16 -d 21 -p cbr -e 1000 -c 0 -i 95 -a 0 -x {16.0 0.15 4 ------- null}
h -t 0.82 -s 16 -d 21 -p cbr -e 1000 -c 0 -i 95 -a 0 -x {16.0 0.15 -1 ------- null}
+ -t 0.82 -s 17 -d 21 -p cbr -e 1000 -c 0 -i 96 -a 0 -x {17.0 0.16 4 ------- null}
+ -t 0.82 -s 18 -d 21 -p cbr -e 1000 -c 0 -i 97 -a 0 -x {18.0 0.17 4 ------- null}
+ -t 0.82 -s 19 -d 21 -p cbr -e 1000 -c 0 -i 98 -a 0 -x {19.0 0.18 4 ------- null}
- -t 0.82 -s 19 -d 21 -p cbr -e 1000 -c 0 -i 98 -a 0 -x {19.0 0.18 4 ------- null}
h -t 0.82 -s 19 -d 21 -p cbr -e 1000 -c 0 -i 98 -a 0 -x {19.0 0.18 -1 ------- null}
+ -t 0.82 -s 20 -d 21 -p cbr -e 1000 -c 0 -i 99 -a 0 -x {20.0 0.19 4 ------- null}
r -t 0.82838 -s 21 -d 0 -p cbr -e 1000 -c 0 -i 95 -a 0 -x {16.0 0.15 4 ------- null}
r -t 0.837236 -s 21 -d 0 -p cbr -e 1000 -c 0 -i 81 -a 0 -x {2.0 0.1 4 ------- null}
r -t 0.84558 -s 21 -d 0 -p cbr -e 1000 -c 0 -i 80 -a 0 -x {1.0 0.0 4 ------- null}
r -t 0.854948 -s 21 -d 0 -p cbr -e 1000 -c 0 -i 93 -a 0 -x {14.0 0.13 4 ------- null}