+ 0.1 0 2 tcp 40 ------- 1 0.0 3.0 0 0
- 0.1 0 2 tcp 40 ------- 1 0.0 3.0 0 0
r 0.11016 0 2 tcp 40 ------- 1 0.0 3.0 0 0
+ 0.11016 2 3 tcp 40 ------- 1 0.0 3.0 0 0
- 0.11016 2 3 tcp 40 ------- 1 0.0 3.0 0 0
r 0.130267 2 3 tcp 40 ------- 1 0.0 3.0 0 0
+ 0.130267 3 2 ack 40 ------- 1 3.0 0.0 0 1
- 0.130267 3 2 ack 40 ------- 1 3.0 0.0 0 1
r 0.150373 3 2 ack 40 ------- 1 3.0 0.0 0 1
+ 0.150373 2 0 ack 40 ------- 1 3.0 0.0 0 1
- 0.150373 2 0 ack 40 ------- 1 3.0 0.0 0 1
r 0.160533 2 0 ack 40 ------- 1 3.0 0.0 0 1
+ 0.160533 0 2 tcp 1040 ------- 1 0.0 3.0 1 2
- 0.160533 0 2 tcp 1040 ------- 1 0.0 3.0 1 2
+ 0.160533 0 2 tcp 1040 ------- 1 0.0 3.0 2 3
+ 0.160533 0 2 tcp 1040 ------- 1 0.0 3.0 3 4
+ 0.160533 0 2 tcp 1040 ------- 1 0.0 3.0 4 5
- 0.164693 0 2 tcp 1040 ------- 1 0.0 3.0 2 3
- 0.168853 0 2 tcp 1040 ------- 1 0.0 3.0 3 4
- 0.173013 0 2 tcp 1040 ------- 1 0.0 3.0 4 5
r 0.174693 0 2 tcp 1040 ------- 1 0.0 3.0 1 2
+ 0.174693 2 3 tcp 1040 ------- 1 0.0 3.0 1 2
- 0.174693 2 3 tcp 1040 ------- 1 0.0 3.0 1 2
r 0.178853 0 2 tcp 1040 ------- 1 0.0 3.0 2 3
+ 0.178853 2 3 tcp 1040 ------- 1 0.0 3.0 2 3
- 0.178853 2 3 tcp 1040 ------- 1 0.0 3.0 2 3
r 0.183013 0 2 tcp 1040 ------- 1 0.0 3.0 3 4
+ 0.183013 2 3 tcp 1040 ------- 1 0.0 3.0 3 4
- 0.183013 2 3 tcp 1040 ------- 1 0.0 3.0 3 4
r 0.187173 0 2 tcp 1040 ------- 1 0.0 3.0 4 5
+ 0.187173 2 3 tcp 1040 ------- 1 0.0 3.0 4 5
- 0.187173 2 3 tcp 1040 ------- 1 0.0 3.0 4 5
r 0.197467 2 3 tcp 1040 ------- 1 0.0 3.0 1 2
+ 0.197467 3 2 ack 40 ------- 1 3.0 0.0 1 6
- 0.197467 3 2 ack 40 ------- 1 3.0 0.0 1 6
r 0.201627 2 3 tcp 1040 ------- 1 0.0 3.0 2 3
+ 0.201627 3 2 ack 40 ------- 1 3.0 0.0 2 7
- 0.201627 3 2 ack 40 ------- 1 3.0 0.0 2 7
r 0.205787 2 3 tcp 1040 ------- 1 0.0 3.0 3 4
+ 0.205787 3 2 ack 40 ------- 1 3.0 0.0 3 8
- 0.205787 3 2 ack 40 ------- 1 3.0 0.0 3 8
r 0.209947 2 3 tcp 1040 ------- 1 0.0 3.0 4 5
+ 0.209947 3 2 ack 40 ------- 1 3.0 0.0 4 9
- 0.209947 3 2 ack 40 ------- 1 3.0 0.0 4 9
r 0.217573 3 2 ack 40 ------- 1 3.0 0.0 1 6
+ 0.217573 2 0 ack 40 ------- 1 3.0 0.0 1 6
- 0.217573 2 0 ack 40 ------- 1 3.0 0.0 1 6
r 0.221733 3 2 ack 40 ------- 1 3.0 0.0 2 7
+ 0.221733 2 0 ack 40 ------- 1 3.0 0.0 2 7
- 0.221733 2 0 ack 40 ------- 1 3.0 0.0 2 7
r 0.225893 3 2 ack 40 ------- 1 3.0 0.0 3 8
+ 0.225893 2 0 ack 40 ------- 1 3.0 0.0 3 8
- 0.225893 2 0 ack 40 ------- 1 3.0 0.0 3 8
r 0.227733 2 0 ack 40 ------- 1 3.0 0.0 1 6
+ 0.227733 0 2 tcp 1040 ------- 1 0.0 3.0 5 10
- 0.227733 0 2 tcp 1040 ------- 1 0.0 3.0 5 10
r 0.230053 3 2 ack 40 ------- 1 3.0 0.0 4 9
+ 0.230053 2 0 ack 40 ------- 1 3.0 0.0 4 9
- 0.230053 2 0 ack 40 ------- 1 3.0 0.0 4 9
r 0.231893 2 0 ack 40 ------- 1 3.0 0.0 2 7
+ 0.231893 0 2 tcp 1040 ------- 1 0.0 3.0 6 11
- 0.231893 0 2 tcp 1040 ------- 1 0.0 3.0 6 11
r 0.236053 2 0 ack 40 ------- 1 3.0 0.0 3 8
+ 0.236053 0 2 tcp 1040 ------- 1 0.0 3.0 7 12
- 0.236053 0 2 tcp 1040 ------- 1 0.0 3.0 7 12
r 0.240213 2 0 ack 40 ------- 1 3.0 0.0 4 9
+ 0.240213 0 2 tcp 1040 ------- 1 0.0 3.0 8 13
- 0.240213 0 2 tcp 1040 ------- 1 0.0 3.0 8 13
r 0.241893 0 2 tcp 1040 ------- 1 0.0 3.0 5 10
+ 0.241893 2 3 tcp 1040 ------- 1 0.0 3.0 5 10
- 0.241893 2 3 tcp 1040 ------- 1 0.0 3.0 5 10
r 0.246053 0 2 tcp 1040 ------- 1 0.0 3.0 6 11
+ 0.246053 2 3 tcp 1040 ------- 1 0.0 3.0 6 11
- 0.246053 2 3 tcp 1040 ------- 1 0.0 3.0 6 11
r 0.250213 0 2 tcp 1040 ------- 1 0.0 3.0 7 12
+ 0.250213 2 3 tcp 1040 ------- 1 0.0 3.0 7 12
- 0.250213 2 3 tcp 1040 ------- 1 0.0 3.0 7 12
r 0.254373 0 2 tcp 1040 ------- 1 0.0 3.0 8 13
+ 0.254373 2 3 tcp 1040 ------- 1 0.0 3.0 8 13
- 0.254373 2 3 tcp 1040 ------- 1 0.0 3.0 8 13
r 0.264667 2 3 tcp 1040 ------- 1 0.0 3.0 5 10
+ 0.264667 3 2 ack 40 ------- 1 3.0 0.0 5 14
- 0.264667 3 2 ack 40 ------- 1 3.0 0.0 5 14
r 0.268827 2 3 tcp 1040 ------- 1 0.0 3.0 6 11
+ 0.268827 3 2 ack 40 ------- 1 3.0 0.0 6 15
- 0.268827 3 2 ack 40 ------- 1 3.0 0.0 6 15
r 0.272987 2 3 tcp 1040 ------- 1 0.0 3.0 7 12
+ 0.272987 3 2 ack 40 ------- 1 3.0 0.0 7 16
- 0.272987 3 2 ack 40 ------- 1 3.0 0.0 7 16
r 0.277147 2 3 tcp 1040 ------- 1 0.0 3.0 8 13
+ 0.277147 3 2 ack 40 ------- 1 3.0 0.0 8 17
- 0.277147 3 2 ack 40 ------- 1 3.0 0.0 8 17
r 0.284773 3 2 ack 40 ------- 1 3.0 0.0 5 14
+ 0.284773 2 0 ack 40 ------- 1 3.0 0.0 5 14
- 0.284773 2 0 ack 40 ------- 1 3.0 0.0 5 14
r 0.288933 3 2 ack 40 ------- 1 3.0 0.0 6 15
+ 0.288933 2 0 ack 40 ------- 1 3.0 0.0 6 15
- 0.288933 2 0 ack 40 ------- 1 3.0 0.0 6 15
r 0.293093 3 2 ack 40 ------- 1 3.0 0.0 7 16
+ 0.293093 2 0 ack 40 ------- 1 3.0 0.0 7 16
- 0.293093 2 0 ack 40 ------- 1 3.0 0.0 7 16
r 0.294933 2 0 ack 40 ------- 1 3.0 0.0 5 14
+ 0.294933 0 2 tcp 1040 ------- 1 0.0 3.0 9 18
- 0.294933 0 2 tcp 1040 ------- 1 0.0 3.0 9 18
r 0.297253 3 2 ack 40 ------- 1 3.0 0.0 8 17
+ 0.297253 2 0 ack 40 ------- 1 3.0 0.0 8 17
- 0.297253 2 0 ack 40 ------- 1 3.0 0.0 8 17
r 0.299093 2 0 ack 40 ------- 1 3.0 0.0 6 15
+ 0.299093 0 2 tcp 1040 ------- 1 0.0 3.0 10 19
- 0.299093 0 2 tcp 1040 ------- 1 0.0 3.0 10 19
r 0.303253 2 0 ack 40 ------- 1 3.0 0.0 7 16
+ 0.303253 0 2 tcp 1040 ------- 1 0.0 3.0 11 20
- 0.303253 0 2 tcp 1040 ------- 1 0.0 3.0 11 20
r 0.307413 2 0 ack 40 ------- 1 3.0 0.0 8 17
+ 0.307413 0 2 tcp 1040 ------- 1 0.0 3.0 12 21
- 0.307413 0 2 tcp 1040 ------- 1 0.0 3.0 12 21
r 0.309093 0 2 tcp 1040 ------- 1 0.0 3.0 9 18
+ 0.309093 2 3 tcp 1040 ------- 1 0.0 3.0 9 18
- 0.309093 2 3 tcp 1040 ------- 1 0.0 3.0 9 18
r 0.313253 0 2 tcp 1040 ------- 1 0.0 3.0 10 19
+ 0.313253 2 3 tcp 1040 ------- 1 0.0 3.0 10 19
- 0.313253 2 3 tcp 1040 ------- 1 0.0 3.0 10 19
r 0.317413 0 2 tcp 1040 ------- 1 0.0 3.0 11 20
+ 0.317413 2 3 tcp 1040 ------- 1 0.0 3.0 11 20
- 0.317413 2 3 tcp 1040 ------- 1 0.0 3.0 11 20
r 0.321573 0 2 tcp 1040 ------- 1 0.0 3.0 12 21
+ 0.321573 2 3 tcp 1040 ------- 1 0.0 3.0 12 21
- 0.321573 2 3 tcp 1040 ------- 1 0.0 3.0 12 21
r 0.331867 2 3 tcp 1040 ------- 1 0.0 3.0 9 18
+ 0.331867 3 2 ack 40 ------- 1 3.0 0.0 9 22
- 0.331867 3 2 ack 40 ------- 1 3.0 0.0 9 22
r 0.336027 2 3 tcp 1040 ------- 1 0.0 3.0 10 19
+ 0.336027 3 2 ack 40 ------- 1 3.0 0.0 10 23
- 0.336027 3 2 ack 40 ------- 1 3.0 0.0 10 23
r 0.340187 2 3 tcp 1040 ------- 1 0.0 3.0 11 20
+ 0.340187 3 2 ack 40 ------- 1 3.0 0.0 11 24
- 0.340187 3 2 ack 40 ------- 1 3.0 0.0 11 24
r 0.344347 2 3 tcp 1040 ------- 1 0.0 3.0 12 21
+ 0.344347 3 2 ack 40 ------- 1 3.0 0.0 12 25
- 0.344347 3 2 ack 40 ------- 1 3.0 0.0 12 25
r 0.351973 3 2 ack 40 ------- 1 3.0 0.0 9 22
+ 0.351973 2 0 ack 40 ------- 1 3.0 0.0 9 22
- 0.351973 2 0 ack 40 ------- 1 3.0 0.0 9 22
r 0.356133 3 2 ack 40 ------- 1 3.0 0.0 10 23
+ 0.356133 2 0 ack 40 ------- 1 3.0 0.0 10 23
- 0.356133 2 0 ack 40 ------- 1 3.0 0.0 10 23
r 0.360293 3 2 ack 40 ------- 1 3.0 0.0 11 24
+ 0.360293 2 0 ack 40 ------- 1 3.0 0.0 11 24
- 0.360293 2 0 ack 40 ------- 1 3.0 0.0 11 24
r 0.362133 2 0 ack 40 ------- 1 3.0 0.0 9 22
+ 0.362133 0 2 tcp 1040 ------- 1 0.0 3.0 13 26
- 0.362133 0 2 tcp 1040 ------- 1 0.0 3.0 13 26
r 0.364453 3 2 ack 40 ------- 1 3.0 0.0 12 25
+ 0.364453 2 0 ack 40 ------- 1 3.0 0.0 12 25
- 0.364453 2 0 ack 40 ------- 1 3.0 0.0 12 25
r 0.366293 2 0 ack 40 ------- 1 3.0 0.0 10 23
+ 0.366293 0 2 tcp 1040 ------- 1 0.0 3.0 14 27
- 0.366293 0 2 tcp 1040 ------- 1 0.0 3.0 14 27
r 0.370453 2 0 ack 40 ------- 1 3.0 0.0 11 24
+ 0.370453 0 2 tcp 1040 ------- 1 0.0 3.0 15 28
- 0.370453 0 2 tcp 1040 ------- 1 0.0 3.0 15 28
r 0.374613 2 0 ack 40 ------- 1 3.0 0.0 12 25
+ 0.374613 0 2 tcp 1040 ------- 1 0.0 3.0 16 29
- 0.374613 0 2 tcp 1040 ------- 1 0.0 3.0 16 29
r 0.376293 0 2 tcp 1040 ------- 1 0.0 3.0 13 26
+ 0.376293 2 3 tcp 1040 ------- 1 0.0 3.0 13 26
- 0.376293 2 3 tcp 1040 ------- 1 0.0 3.0 13 26
r 0.380453 0 2 tcp 1040 ------- 1 0.0 3.0 14 27
+ 0.380453 2 3 tcp 1040 ------- 1 0.0 3.0 14 27
- 0.380453 2 3 tcp 1040 ------- 1 0.0 3.0 14 27
r 0.384613 0 2 tcp 1040 ------- 1 0.0 3.0 15 28
+ 0.384613 2 3 tcp 1040 ------- 1 0.0 3.0 15 28
- 0.384613 2 3 tcp 1040 ------- 1 0.0 3.0 15 28
r 0.388773 0 2 tcp 1040 ------- 1 0.0 3.0 16 29
+ 0.388773 2 3 tcp 1040 ------- 1 0.0 3.0 16 29
- 0.388773 2 3 tcp 1040 ------- 1 0.0 3.0 16 29
r 0.399067 2 3 tcp 1040 ------- 1 0.0 3.0 13 26
+ 0.399067 3 2 ack 40 ------- 1 3.0 0.0 13 30
- 0.399067 3 2 ack 40 ------- 1 3.0 0.0 13 30
r 0.403227 2 3 tcp 1040 ------- 1 0.0 3.0 14 27
+ 0.403227 3 2 ack 40 ------- 1 3.0 0.0 14 31
- 0.403227 3 2 ack 40 ------- 1 3.0 0.0 14 31
r 0.407387 2 3 tcp 1040 ------- 1 0.0 3.0 15 28
+ 0.407387 3 2 ack 40 ------- 1 3.0 0.0 15 32
- 0.407387 3 2 ack 40 ------- 1 3.0 0.0 15 32
r 0.411547 2 3 tcp 1040 ------- 1 0.0 3.0 16 29
+ 0.411547 3 2 ack 40 ------- 1 3.0 0.0 16 33
- 0.411547 3 2 ack 40 ------- 1 3.0 0.0 16 33
r 0.419173 3 2 ack 40 ------- 1 3.0 0.0 13 30
+ 0.419173 2 0 ack 40 ------- 1 3.0 0.0 13 30
- 0.419173 2 0 ack 40 ------- 1 3.0 0.0 13 30
r 0.423333 3 2 ack 40 ------- 1 3.0 0.0 14 31
+ 0.423333 2 0 ack 40 ------- 1 3.0 0.0 14 31
- 0.423333 2 0 ack 40 ------- 1 3.0 0.0 14 31
r 0.427493 3 2 ack 40 ------- 1 3.0 0.0 15 32
+ 0.427493 2 0 ack 40 ------- 1 3.0 0.0 15 32
- 0.427493 2 0 ack 40 ------- 1 3.0 0.0 15 32
r 0.429333 2 0 ack 40 ------- 1 3.0 0.0 13 30
+ 0.429333 0 2 tcp 1040 ------- 1 0.0 3.0 17 34
- 0.429333 0 2 tcp 1040 ------- 1 0.0 3.0 17 34
r 0.431653 3 2 ack 40 ------- 1 3.0 0.0 16 33
+ 0.431653 2 0 ack 40 ------- 1 3.0 0.0 16 33
- 0.431653 2 0 ack 40 ------- 1 3.0 0.0 16 33
r 0.433493 2 0 ack 40 ------- 1 3.0 0.0 14 31
+ 0.433493 0 2 tcp 1040 ------- 1 0.0 3.0 18 35
- 0.433493 0 2 tcp 1040 ------- 1 0.0 3.0 18 35
r 0.437653 2 0 ack 40 ------- 1 3.0 0.0 15 32
+ 0.437653 0 2 tcp 1040 ------- 1 0.0 3.0 19 36
- 0.437653 0 2 tcp 1040 ------- 1 0.0 3.0 19 36
r 0.441813 2 0 ack 40 ------- 1 3.0 0.0 16 33
+ 0.441813 0 2 tcp 1040 ------- 1 0.0 3.0 20 37
- 0.441813 0 2 tcp 1040 ------- 1 0.0 3.0 20 37
r 0.443493 0 2 tcp 1040 ------- 1 0.0 3.0 17 34
+ 0.443493 2 3 tcp 1040 ------- 1 0.0 3.0 17 34
- 0.443493 2 3 tcp 1040 ------- 1 0.0 3.0 17 34
r 0.447653 0 2 tcp 1040 ------- 1 0.0 3.0 18 35
+ 0.447653 2 3 tcp 1040 ------- 1 0.0 3.0 18 35
- 0.447653 2 3 tcp 1040 ------- 1 0.0 3.0 18 35
r 0.451813 0 2 tcp 1040 ------- 1 0.0 3.0 19 36
+ 0.451813 2 3 tcp 1040 ------- 1 0.0 3.0 19 36
- 0.451813 2 3 tcp 1040 ------- 1 0.0 3.0 19 36
r 0.455973 0 2 tcp 1040 ------- 1 0.0 3.0 20 37
+ 0.455973 2 3 tcp 1040 ------- 1 0.0 3.0 20 37
- 0.455973 2 3 tcp 1040 ------- 1 0.0 3.0 20 37
r 0.466267 2 3 tcp 1040 ------- 1 0.0 3.0 17 34
+ 0.466267 3 2 ack 40 ------- 1 3.0 0.0 17 38
- 0.466267 3 2 ack 40 ------- 1 3.0 0.0 17 38
r 0.470427 2 3 tcp 1040 ------- 1 0.0 3.0 18 35
+ 0.470427 3 2 ack 40 ------- 1 3.0 0.0 18 39
- 0.470427 3 2 ack 40 ------- 1 3.0 0.0 18 39
r 0.474587 2 3 tcp 1040 ------- 1 0.0 3.0 19 36
+ 0.474587 3 2 ack 40 ------- 1 3.0 0.0 19 40
- 0.474587 3 2 ack 40 ------- 1 3.0 0.0 19 40
r 0.478747 2 3 tcp 1040 ------- 1 0.0 3.0 20 37
+ 0.478747 3 2 ack 40 ------- 1 3.0 0.0 20 41
- 0.478747 3 2 ack 40 ------- 1 3.0 0.0 20 41
r 0.486373 3 2 ack 40 ------- 1 3.0 0.0 17 38
+ 0.486373 2 0 ack 40 ------- 1 3.0 0.0 17 38
- 0.486373 2 0 ack 40 ------- 1 3.0 0.0 17 38
r 0.490533 3 2 ack 40 ------- 1 3.0 0.0 18 39
+ 0.490533 2 0 ack 40 ------- 1 3.0 0.0 18 39
- 0.490533 2 0 ack 40 ------- 1 3.0 0.0 18 39
r 0.494693 3 2 ack 40 ------- 1 3.0 0.0 19 40
+ 0.494693 2 0 ack 40 ------- 1 3.0 0.0 19 40
- 0.494693 2 0 ack 40 ------- 1 3.0 0.0 19 40
r 0.496533 2 0 ack 40 ------- 1 3.0 0.0 17 38
+ 0.496533 0 2 tcp 1040 ------- 1 0.0 3.0 21 42
- 0.496533 0 2 tcp 1040 ------- 1 0.0 3.0 21 42
r 0.498853 3 2 ack 40 ------- 1 3.0 0.0 20 41
+ 0.498853 2 0 ack 40 ------- 1 3.0 0.0 20 41
- 0.498853 2 0 ack 40 ------- 1 3.0 0.0 20 41
r 0.500693 2 0 ack 40 ------- 1 3.0 0.0 18 39
+ 0.500693 0 2 tcp 1040 ------- 1 0.0 3.0 22 43
- 0.500693 0 2 tcp 1040 ------- 1 0.0 3.0 22 43
r 0.504853 2 0 ack 40 ------- 1 3.0 0.0 19 40
+ 0.504853 0 2 tcp 1040 ------- 1 0.0 3.0 23 44
- 0.504853 0 2 tcp 1040 ------- 1 0.0 3.0 23 44
r 0.509013 2 0 ack 40 ------- 1 3.0 0.0 20 41
+ 0.509013 0 2 tcp 1040 ------- 1 0.0 3.0 24 45
- 0.509013 0 2 tcp 1040 ------- 1 0.0 3.0 24 45
r 0.510693 0 2 tcp 1040 ------- 1 0.0 3.0 21 42
+ 0.510693 2 3 tcp 1040 ------- 1 0.0 3.0 21 42
- 0.510693 2 3 tcp 1040 ------- 1 0.0 3.0 21 42
r 0.514853 0 2 tcp 1040 ------- 1 0.0 3.0 22 43
+ 0.514853 2 3 tcp 1040 ------- 1 0.0 3.0 22 43
- 0.514853 2 3 tcp 1040 ------- 1 0.0 3.0 22 43
r 0.519013 0 2 tcp 1040 ------- 1 0.0 3.0 23 44
+ 0.519013 2 3 tcp 1040 ------- 1 0.0 3.0 23 44
- 0.519013 2 3 tcp 1040 ------- 1 0.0 3.0 23 44
r 0.523173 0 2 tcp 1040 ------- 1 0.0 3.0 24 45
+ 0.523173 2 3 tcp 1040 ------- 1 0.0 3.0 24 45
- 0.523173 2 3 tcp 1040 ------- 1 0.0 3.0 24 45
r 0.533467 2 3 tcp 1040 ------- 1 0.0 3.0 21 42
+ 0.533467 3 2 ack 40 ------- 1 3.0 0.0 21 46
- 0.533467 3 2 ack 40 ------- 1 3.0 0.0 21 46
r 0.537627 2 3 tcp 1040 ------- 1 0.0 3.0 22 43
+ 0.537627 3 2 ack 40 ------- 1 3.0 0.0 22 47
- 0.537627 3 2 ack 40 ------- 1 3.0 0.0 22 47
r 0.541787 2 3 tcp 1040 ------- 1 0.0 3.0 23 44
+ 0.541787 3 2 ack 40 ------- 1 3.0 0.0 23 48
- 0.541787 3 2 ack 40 ------- 1 3.0 0.0 23 48
r 0.545947 2 3 tcp 1040 ------- 1 0.0 3.0 24 45
+ 0.545947 3 2 ack 40 ------- 1 3.0 0.0 24 49
- 0.545947 3 2 ack 40 ------- 1 3.0 0.0 24 49
r 0.553573 3 2 ack 40 ------- 1 3.0 0.0 21 46
+ 0.553573 2 0 ack 40 ------- 1 3.0 0.0 21 46
- 0.553573 2 0 ack 40 ------- 1 3.0 0.0 21 46
r 0.557733 3 2 ack 40 ------- 1 3.0 0.0 22 47
+ 0.557733 2 0 ack 40 ------- 1 3.0 0.0 22 47
- 0.557733 2 0 ack 40 ------- 1 3.0 0.0 22 47
r 0.561893 3 2 ack 40 ------- 1 3.0 0.0 23 48
+ 0.561893 2 0 ack 40 ------- 1 3.0 0.0 23 48
- 0.561893 2 0 ack 40 ------- 1 3.0 0.0 23 48
r 0.563733 2 0 ack 40 ------- 1 3.0 0.0 21 46
+ 0.563733 0 2 tcp 1040 ------- 1 0.0 3.0 25 50
- 0.563733 0 2 tcp 1040 ------- 1 0.0 3.0 25 50
r 0.566053 3 2 ack 40 ------- 1 3.0 0.0 24 49
+ 0.566053 2 0 ack 40 ------- 1 3.0 0.0 24 49
- 0.566053 2 0 ack 40 ------- 1 3.0 0.0 24 49
r 0.567893 2 0 ack 40 ------- 1 3.0 0.0 22 47
+ 0.567893 0 2 tcp 1040 ------- 1 0.0 3.0 26 51
- 0.567893 0 2 tcp 1040 ------- 1 0.0 3.0 26 51
r 0.572053 2 0 ack 40 ------- 1 3.0 0.0 23 48
+ 0.572053 0 2 tcp 1040 ------- 1 0.0 3.0 27 52
- 0.572053 0 2 tcp 1040 ------- 1 0.0 3.0 27 52
r 0.576213 2 0 ack 40 ------- 1 3.0 0.0 24 49
+ 0.576213 0 2 tcp 1040 ------- 1 0.0 3.0 28 53
- 0.576213 0 2 tcp 1040 ------- 1 0.0 3.0 28 53
r 0.577893 0 2 tcp 1040 ------- 1 0.0 3.0 25 50
+ 0.577893 2 3 tcp 1040 ------- 1 0.0 3.0 25 50
- 0.577893 2 3 tcp 1040 ------- 1 0.0 3.0 25 50
r 0.582053 0 2 tcp 1040 ------- 1 0.0 3.0 26 51
+ 0.582053 2 3 tcp 1040 ------- 1 0.0 3.0 26 51
- 0.582053 2 3 tcp 1040 ------- 1 0.0 3.0 26 51
r 0.586213 0 2 tcp 1040 ------- 1 0.0 3.0 27 52
+ 0.586213 2 3 tcp 1040 ------- 1 0.0 3.0 27 52
- 0.586213 2 3 tcp 1040 ------- 1 0.0 3.0 27 52
r 0.590373 0 2 tcp 1040 ------- 1 0.0 3.0 28 53
+ 0.590373 2 3 tcp 1040 ------- 1 0.0 3.0 28 53
- 0.590373 2 3 tcp 1040 ------- 1 0.0 3.0 28 53
r 0.600667 2 3 tcp 1040 ------- 1 0.0 3.0 25 50
+ 0.600667 3 2 ack 40 ------- 1 3.0 0.0 25 54
- 0.600667 3 2 ack 40 ------- 1 3.0 0.0 25 54
r 0.604827 2 3 tcp 1040 ------- 1 0.0 3.0 26 51
+ 0.604827 3 2 ack 40 ------- 1 3.0 0.0 26 55
- 0.604827 3 2 ack 40 ------- 1 3.0 0.0 26 55
r 0.608987 2 3 tcp 1040 ------- 1 0.0 3.0 27 52
+ 0.608987 3 2 ack 40 ------- 1 3.0 0.0 27 56
- 0.608987 3 2 ack 40 ------- 1 3.0 0.0 27 56
r 0.613147 2 3 tcp 1040 ------- 1 0.0 3.0 28 53
+ 0.613147 3 2 ack 40 ------- 1 3.0 0.0 28 57
- 0.613147 3 2 ack 40 ------- 1 3.0 0.0 28 57
r 0.620773 3 2 ack 40 ------- 1 3.0 0.0 25 54
+ 0.620773 2 0 ack 40 ------- 1 3.0 0.0 25 54
- 0.620773 2 0 ack 40 ------- 1 3.0 0.0 25 54
r 0.624933 3 2 ack 40 ------- 1 3.0 0.0 26 55
+ 0.624933 2 0 ack 40 ------- 1 3.0 0.0 26 55
- 0.624933 2 0 ack 40 ------- 1 3.0 0.0 26 55
r 0.629093 3 2 ack 40 ------- 1 3.0 0.0 27 56
+ 0.629093 2 0 ack 40 ------- 1 3.0 0.0 27 56
- 0.629093 2 0 ack 40 ------- 1 3.0 0.0 27 56
r 0.630933 2 0 ack 40 ------- 1 3.0 0.0 25 54
+ 0.630933 0 2 tcp 1040 ------- 1 0.0 3.0 29 58
- 0.630933 0 2 tcp 1040 ------- 1 0.0 3.0 29 58
r 0.633253 3 2 ack 40 ------- 1 3.0 0.0 28 57
+ 0.633253 2 0 ack 40 ------- 1 3.0 0.0 28 57
- 0.633253 2 0 ack 40 ------- 1 3.0 0.0 28 57
r 0.635093 2 0 ack 40 ------- 1 3.0 0.0 26 55
+ 0.635093 0 2 tcp 1040 ------- 1 0.0 3.0 30 59
- 0.635093 0 2 tcp 1040 ------- 1 0.0 3.0 30 59
r 0.639253 2 0 ack 40 ------- 1 3.0 0.0 27 56
+ 0.639253 0 2 tcp 1040 ------- 1 0.0 3.0 31 60
- 0.639253 0 2 tcp 1040 ------- 1 0.0 3.0 31 60
r 0.643413 2 0 ack 40 ------- 1 3.0 0.0 28 57
+ 0.643413 0 2 tcp 1040 ------- 1 0.0 3.0 32 61
- 0.643413 0 2 tcp 1040 ------- 1 0.0 3.0 32 61
r 0.645093 0 2 tcp 1040 ------- 1 0.0 3.0 29 58
+ 0.645093 2 3 tcp 1040 ------- 1 0.0 3.0 29 58
- 0.645093 2 3 tcp 1040 ------- 1 0.0 3.0 29 58
r 0.649253 0 2 tcp 1040 ------- 1 0.0 3.0 30 59
+ 0.649253 2 3 tcp 1040 ------- 1 0.0 3.0 30 59
- 0.649253 2 3 tcp 1040 ------- 1 0.0 3.0 30 59
r 0.653413 0 2 tcp 1040 ------- 1 0.0 3.0 31 60
+ 0.653413 2 3 tcp 1040 ------- 1 0.0 3.0 31 60
- 0.653413 2 3 tcp 1040 ------- 1 0.0 3.0 31 60
r 0.657573 0 2 tcp 1040 ------- 1 0.0 3.0 32 61
+ 0.657573 2 3 tcp 1040 ------- 1 0.0 3.0 32 61
- 0.657573 2 3 tcp 1040 ------- 1 0.0 3.0 32 61
r 0.667867 2 3 tcp 1040 ------- 1 0.0 3.0 29 58
+ 0.667867 3 2 ack 40 ------- 1 3.0 0.0 29 62
- 0.667867 3 2 ack 40 ------- 1 3.0 0.0 29 62
r 0.672027 2 3 tcp 1040 ------- 1 0.0 3.0 30 59
+ 0.672027 3 2 ack 40 ------- 1 3.0 0.0 30 63
- 0.672027 3 2 ack 40 ------- 1 3.0 0.0 30 63
r 0.676187 2 3 tcp 1040 ------- 1 0.0 3.0 31 60
+ 0.676187 3 2 ack 40 ------- 1 3.0 0.0 31 64
- 0.676187 3 2 ack 40 ------- 1 3.0 0.0 31 64
r 0.680347 2 3 tcp 1040 ------- 1 0.0 3.0 32 61
+ 0.680347 3 2 ack 40 ------- 1 3.0 0.0 32 65
- 0.680347 3 2 ack 40 ------- 1 3.0 0.0 32 65
r 0.687973 3 2 ack 40 ------- 1 3.0 0.0 29 62
+ 0.687973 2 0 ack 40 ------- 1 3.0 0.0 29 62
- 0.687973 2 0 ack 40 ------- 1 3.0 0.0 29 62
r 0.692133 3 2 ack 40 ------- 1 3.0 0.0 30 63
+ 0.692133 2 0 ack 40 ------- 1 3.0 0.0 30 63
- 0.692133 2 0 ack 40 ------- 1 3.0 0.0 30 63
r 0.696293 3 2 ack 40 ------- 1 3.0 0.0 31 64
+ 0.696293 2 0 ack 40 ------- 1 3.0 0.0 31 64
- 0.696293 2 0 ack 40 ------- 1 3.0 0.0 31 64
r 0.698133 2 0 ack 40 ------- 1 3.0 0.0 29 62
+ 0.698133 0 2 tcp 1040 ------- 1 0.0 3.0 33 66
- 0.698133 0 2 tcp 1040 ------- 1 0.0 3.0 33 66
r 0.700453 3 2 ack 40 ------- 1 3.0 0.0 32 65
+ 0.700453 2 0 ack 40 ------- 1 3.0 0.0 32 65
- 0.700453 2 0 ack 40 ------- 1 3.0 0.0 32 65
r 0.702293 2 0 ack 40 ------- 1 3.0 0.0 30 63
+ 0.702293 0 2 tcp 1040 ------- 1 0.0 3.0 34 67
- 0.702293 0 2 tcp 1040 ------- 1 0.0 3.0 34 67
r 0.706453 2 0 ack 40 ------- 1 3.0 0.0 31 64
+ 0.706453 0 2 tcp 1040 ------- 1 0.0 3.0 35 68
- 0.706453 0 2 tcp 1040 ------- 1 0.0 3.0 35 68
r 0.710613 2 0 ack 40 ------- 1 3.0 0.0 32 65
+ 0.710613 0 2 tcp 1040 ------- 1 0.0 3.0 36 69
- 0.710613 0 2 tcp 1040 ------- 1 0.0 3.0 36 69
r 0.712293 0 2 tcp 1040 ------- 1 0.0 3.0 33 66
+ 0.712293 2 3 tcp 1040 ------- 1 0.0 3.0 33 66
- 0.712293 2 3 tcp 1040 ------- 1 0.0 3.0 33 66
r 0.716453 0 2 tcp 1040 ------- 1 0.0 3.0 34 67
+ 0.716453 2 3 tcp 1040 ------- 1 0.0 3.0 34 67
- 0.716453 2 3 tcp 1040 ------- 1 0.0 3.0 34 67
r 0.720613 0 2 tcp 1040 ------- 1 0.0 3.0 35 68
+ 0.720613 2 3 tcp 1040 ------- 1 0.0 3.0 35 68
- 0.720613 2 3 tcp 1040 ------- 1 0.0 3.0 35 68
r 0.724773 0 2 tcp 1040 ------- 1 0.0 3.0 36 69
+ 0.724773 2 3 tcp 1040 ------- 1 0.0 3.0 36 69
- 0.724773 2 3 tcp 1040 ------- 1 0.0 3.0 36 69
r 0.735067 2 3 tcp 1040 ------- 1 0.0 3.0 33 66
+ 0.735067 3 2 ack 40 ------- 1 3.0 0.0 33 70
- 0.735067 3 2 ack 40 ------- 1 3.0 0.0 33 70
r 0.739227 2 3 tcp 1040 ------- 1 0.0 3.0 34 67
+ 0.739227 3 2 ack 40 ------- 1 3.0 0.0 34 71
- 0.739227 3 2 ack 40 ------- 1 3.0 0.0 34 71
r 0.743387 2 3 tcp 1040 ------- 1 0.0 3.0 35 68
+ 0.743387 3 2 ack 40 ------- 1 3.0 0.0 35 72
- 0.743387 3 2 ack 40 ------- 1 3.0 0.0 35 72
r 0.747547 2 3 tcp 1040 ------- 1 0.0 3.0 36 69
+ 0.747547 3 2 ack 40 ------- 1 3.0 0.0 36 73
- 0.747547 3 2 ack 40 ------- 1 3.0 0.0 36 73
r 0.755173 3 2 ack 40 ------- 1 3.0 0.0 33 70
+ 0.755173 2 0 ack 40 ------- 1 3.0 0.0 33 70
- 0.755173 2 0 ack 40 ------- 1 3.0 0.0 33 70
r 0.759333 3 2 ack 40 ------- 1 3.0 0.0 34 71
+ 0.759333 2 0 ack 40 ------- 1 3.0 0.0 34 71
- 0.759333 2 0 ack 40 ------- 1 3.0 0.0 34 71
r 0.763493 3 2 ack 40 ------- 1 3.0 0.0 35 72
+ 0.763493 2 0 ack 40 ------- 1 3.0 0.0 35 72
- 0.763493 2 0 ack 40 ------- 1 3.0 0.0 35 72
r 0.765333 2 0 ack 40 ------- 1 3.0 0.0 33 70
+ 0.765333 0 2 tcp 1040 ------- 1 0.0 3.0 37 74
- 0.765333 0 2 tcp 1040 ------- 1 0.0 3.0 37 74
r 0.767653 3 2 ack 40 ------- 1 3.0 0.0 36 73
+ 0.767653 2 0 ack 40 ------- 1 3.0 0.0 36 73
- 0.767653 2 0 ack 40 ------- 1 3.0 0.0 36 73
r 0.769493 2 0 ack 40 ------- 1 3.0 0.0 34 71
+ 0.769493 0 2 tcp 1040 ------- 1 0.0 3.0 38 75
- 0.769493 0 2 tcp 1040 ------- 1 0.0 3.0 38 75
r 0.773653 2 0 ack 40 ------- 1 3.0 0.0 35 72
+ 0.773653 0 2 tcp 1040 ------- 1 0.0 3.0 39 76
- 0.773653 0 2 tcp 1040 ------- 1 0.0 3.0 39 76
r 0.777813 2 0 ack 40 ------- 1 3.0 0.0 36 73
+ 0.777813 0 2 tcp 1040 ------- 1 0.0 3.0 40 77
- 0.777813 0 2 tcp 1040 ------- 1 0.0 3.0 40 77
r 0.779493 0 2 tcp 1040 ------- 1 0.0 3.0 37 74
+ 0.779493 2 3 tcp 1040 ------- 1 0.0 3.0 37 74
- 0.779493 2 3 tcp 1040 ------- 1 0.0 3.0 37 74
r 0.783653 0 2 tcp 1040 ------- 1 0.0 3.0 38 75
+ 0.783653 2 3 tcp 1040 ------- 1 0.0 3.0 38 75
- 0.783653 2 3 tcp 1040 ------- 1 0.0 3.0 38 75
r 0.787813 0 2 tcp 1040 ------- 1 0.0 3.0 39 76
+ 0.787813 2 3 tcp 1040 ------- 1 0.0 3.0 39 76
- 0.787813 2 3 tcp 1040 ------- 1 0.0 3.0 39 76
r 0.791973 0 2 tcp 1040 ------- 1 0.0 3.0 40 77
+ 0.791973 2 3 tcp 1040 ------- 1 0.0 3.0 40 77
- 0.791973 2 3 tcp 1040 ------- 1 0.0 3.0 40 77
r 0.802267 2 3 tcp 1040 ------- 1 0.0 3.0 37 74
+ 0.802267 3 2 ack 40 ------- 1 3.0 0.0 37 78
- 0.802267 3 2 ack 40 ------- 1 3.0 0.0 37 78
r 0.806427 2 3 tcp 1040 ------- 1 0.0 3.0 38 75
+ 0.806427 3 2 ack 40 ------- 1 3.0 0.0 38 79
- 0.806427 3 2 ack 40 ------- 1 3.0 0.0 38 79
r 0.810587 2 3 tcp 1040 ------- 1 0.0 3.0 39 76
+ 0.810587 3 2 ack 40 ------- 1 3.0 0.0 39 80
- 0.810587 3 2 ack 40 ------- 1 3.0 0.0 39 80
r 0.814747 2 3 tcp 1040 ------- 1 0.0 3.0 40 77
+ 0.814747 3 2 ack 40 ------- 1 3.0 0.0 40 81
- 0.814747 3 2 ack 40 ------- 1 3.0 0.0 40 81
r 0.822373 3 2 ack 40 ------- 1 3.0 0.0 37 78
+ 0.822373 2 0 ack 40 ------- 1 3.0 0.0 37 78
- 0.822373 2 0 ack 40 ------- 1 3.0 0.0 37 78
r 0.826533 3 2 ack 40 ------- 1 3.0 0.0 38 79
+ 0.826533 2 0 ack 40 ------- 1 3.0 0.0 38 79
- 0.826533 2 0 ack 40 ------- 1 3.0 0.0 38 79
r 0.830693 3 2 ack 40 ------- 1 3.0 0.0 39 80
+ 0.830693 2 0 ack 40 ------- 1 3.0 0.0 39 80
- 0.830693 2 0 ack 40 ------- 1 3.0 0.0 39 80
r 0.832533 2 0 ack 40 ------- 1 3.0 0.0 37 78
+ 0.832533 0 2 tcp 1040 ------- 1 0.0 3.0 41 82
- 0.832533 0 2 tcp 1040 ------- 1 0.0 3.0 41 82
r 0.834853 3 2 ack 40 ------- 1 3.0 0.0 40 81
+ 0.834853 2 0 ack 40 ------- 1 3.0 0.0 40 81
- 0.834853 2 0 ack 40 ------- 1 3.0 0.0 40 81
r 0.836693 2 0 ack 40 ------- 1 3.0 0.0 38 79
+ 0.836693 0 2 tcp 1040 ------- 1 0.0 3.0 42 83
- 0.836693 0 2 tcp 1040 ------- 1 0.0 3.0 42 83
r 0.840853 2 0 ack 40 ------- 1 3.0 0.0 39 80
+ 0.840853 0 2 tcp 1040 ------- 1 0.0 3.0 43 84
- 0.840853 0 2 tcp 1040 ------- 1 0.0 3.0 43 84
r 0.845013 2 0 ack 40 ------- 1 3.0 0.0 40 81
+ 0.845013 0 2 tcp 1040 ------- 1 0.0 3.0 44 85
- 0.845013 0 2 tcp 1040 ------- 1 0.0 3.0 44 85
r 0.846693 0 2 tcp 1040 ------- 1 0.0 3.0 41 82
+ 0.846693 2 3 tcp 1040 ------- 1 0.0 3.0 41 82
- 0.846693 2 3 tcp 1040 ------- 1 0.0 3.0 41 82
r 0.850853 0 2 tcp 1040 ------- 1 0.0 3.0 42 83
+ 0.850853 2 3 tcp 1040 ------- 1 0.0 3.0 42 83
- 0.850853 2 3 tcp 1040 ------- 1 0.0 3.0 42 83
r 0.855013 0 2 tcp 1040 ------- 1 0.0 3.0 43 84
+ 0.855013 2 3 tcp 1040 ------- 1 0.0 3.0 43 84
- 0.855013 2 3 tcp 1040 ------- 1 0.0 3.0 43 84
r 0.859173 0 2 tcp 1040 ------- 1 0.0 3.0 44 85
+ 0.859173 2 3 tcp 1040 ------- 1 0.0 3.0 44 85
- 0.859173 2 3 tcp 1040 ------- 1 0.0 3.0 44 85
r 0.869467 2 3 tcp 1040 ------- 1 0.0 3.0 41 82
+ 0.869467 3 2 ack 40 ------- 1 3.0 0.0 41 86
- 0.869467 3 2 ack 40 ------- 1 3.0 0.0 41 86
r 0.873627 2 3 tcp 1040 ------- 1 0.0 3.0 42 83
+ 0.873627 3 2 ack 40 ------- 1 3.0 0.0 42 87
- 0.873627 3 2 ack 40 ------- 1 3.0 0.0 42 87
r 0.877787 2 3 tcp 1040 ------- 1 0.0 3.0 43 84
+ 0.877787 3 2 ack 40 ------- 1 3.0 0.0 43 88
- 0.877787 3 2 ack 40 ------- 1 3.0 0.0 43 88
r 0.881947 2 3 tcp 1040 ------- 1 0.0 3.0 44 85
+ 0.881947 3 2 ack 40 ------- 1 3.0 0.0 44 89
- 0.881947 3 2 ack 40 ------- 1 3.0 0.0 44 89
r 0.889573 3 2 ack 40 ------- 1 3.0 0.0 41 86
+ 0.889573 2 0 ack 40 ------- 1 3.0 0.0 41 86
- 0.889573 2 0 ack 40 ------- 1 3.0 0.0 41 86
r 0.893733 3 2 ack 40 ------- 1 3.0 0.0 42 87
+ 0.893733 2 0 ack 40 ------- 1 3.0 0.0 42 87
- 0.893733 2 0 ack 40 ------- 1 3.0 0.0 42 87
r 0.897893 3 2 ack 40 ------- 1 3.0 0.0 43 88
+ 0.897893 2 0 ack 40 ------- 1 3.0 0.0 43 88
- 0.897893 2 0 ack 40 ------- 1 3.0 0.0 43 88
r 0.899733 2 0 ack 40 ------- 1 3.0 0.0 41 86
+ 0.899733 0 2 tcp 1040 ------- 1 0.0 3.0 45 90
- 0.899733 0 2 tcp 1040 ------- 1 0.0 3.0 45 90
r 0.902053 3 2 ack 40 ------- 1 3.0 0.0 44 89
+ 0.902053 2 0 ack 40 ------- 1 3.0 0.0 44 89
- 0.902053 2 0 ack 40 ------- 1 3.0 0.0 44 89
r 0.903893 2 0 ack 40 ------- 1 3.0 0.0 42 87
+ 0.903893 0 2 tcp 1040 ------- 1 0.0 3.0 46 91
- 0.903893 0 2 tcp 1040 ------- 1 0.0 3.0 46 91
r 0.908053 2 0 ack 40 ------- 1 3.0 0.0 43 88
+ 0.908053 0 2 tcp 1040 ------- 1 0.0 3.0 47 92
- 0.908053 0 2 tcp 1040 ------- 1 0.0 3.0 47 92
r 0.912213 2 0 ack 40 ------- 1 3.0 0.0 44 89
+ 0.912213 0 2 tcp 1040 ------- 1 0.0 3.0 48 93
- 0.912213 0 2 tcp 1040 ------- 1 0.0 3.0 48 93
r 0.913893 0 2 tcp 1040 ------- 1 0.0 3.0 45 90
+ 0.913893 2 3 tcp 1040 ------- 1 0.0 3.0 45 90
- 0.913893 2 3 tcp 1040 ------- 1 0.0 3.0 45 90
r 0.918053 0 2 tcp 1040 ------- 1 0.0 3.0 46 91
+ 0.918053 2 3 tcp 1040 ------- 1 0.0 3.0 46 91
- 0.918053 2 3 tcp 1040 ------- 1 0.0 3.0 46 91
r 0.922213 0 2 tcp 1040 ------- 1 0.0 3.0 47 92
+ 0.922213 2 3 tcp 1040 ------- 1 0.0 3.0 47 92
- 0.922213 2 3 tcp 1040 ------- 1 0.0 3.0 47 92
r 0.926373 0 2 tcp 1040 ------- 1 0.0 3.0 48 93
+ 0.926373 2 3 tcp 1040 ------- 1 0.0 3.0 48 93
- 0.926373 2 3 tcp 1040 ------- 1 0.0 3.0 48 93
r 0.936667 2 3 tcp 1040 ------- 1 0.0 3.0 45 90
+ 0.936667 3 2 ack 40 ------- 1 3.0 0.0 45 94
- 0.936667 3 2 ack 40 ------- 1 3.0 0.0 45 94
r 0.940827 2 3 tcp 1040 ------- 1 0.0 3.0 46 91
+ 0.940827 3 2 ack 40 ------- 1 3.0 0.0 46 95
- 0.940827 3 2 ack 40 ------- 1 3.0 0.0 46 95
r 0.944987 2 3 tcp 1040 ------- 1 0.0 3.0 47 92
+ 0.944987 3 2 ack 40 ------- 1 3.0 0.0 47 96
- 0.944987 3 2 ack 40 ------- 1 3.0 0.0 47 96
r 0.949147 2 3 tcp 1040 ------- 1 0.0 3.0 48 93
+ 0.949147 3 2 ack 40 ------- 1 3.0 0.0 48 97
- 0.949147 3 2 ack 40 ------- 1 3.0 0.0 48 97
r 0.956773 3 2 ack 40 ------- 1 3.0 0.0 45 94
+ 0.956773 2 0 ack 40 ------- 1 3.0 0.0 45 94
- 0.956773 2 0 ack 40 ------- 1 3.0 0.0 45 94
r 0.960933 3 2 ack 40 ------- 1 3.0 0.0 46 95
+ 0.960933 2 0 ack 40 ------- 1 3.0 0.0 46 95
- 0.960933 2 0 ack 40 ------- 1 3.0 0.0 46 95
r 0.965093 3 2 ack 40 ------- 1 3.0 0.0 47 96
+ 0.965093 2 0 ack 40 ------- 1 3.0 0.0 47 96
- 0.965093 2 0 ack 40 ------- 1 3.0 0.0 47 96
r 0.966933 2 0 ack 40 ------- 1 3.0 0.0 45 94
+ 0.966933 0 2 tcp 1040 ------- 1 0.0 3.0 49 98
- 0.966933 0 2 tcp 1040 ------- 1 0.0 3.0 49 98
r 0.969253 3 2 ack 40 ------- 1 3.0 0.0 48 97
+ 0.969253 2 0 ack 40 ------- 1 3.0 0.0 48 97
- 0.969253 2 0 ack 40 ------- 1 3.0 0.0 48 97
r 0.971093 2 0 ack 40 ------- 1 3.0 0.0 46 95
+ 0.971093 0 2 tcp 1040 ------- 1 0.0 3.0 50 99
- 0.971093 0 2 tcp 1040 ------- 1 0.0 3.0 50 99
r 0.975253 2 0 ack 40 ------- 1 3.0 0.0 47 96
+ 0.975253 0 2 tcp 1040 ------- 1 0.0 3.0 51 100
- 0.975253 0 2 tcp 1040 ------- 1 0.0 3.0 51 100
r 0.979413 2 0 ack 40 ------- 1 3.0 0.0 48 97
+ 0.979413 0 2 tcp 1040 ------- 1 0.0 3.0 52 101
- 0.979413 0 2 tcp 1040 ------- 1 0.0 3.0 52 101
r 0.981093 0 2 tcp 1040 ------- 1 0.0 3.0 49 98
+ 0.981093 2 3 tcp 1040 ------- 1 0.0 3.0 49 98
- 0.981093 2 3 tcp 1040 ------- 1 0.0 3.0 49 98
r 0.985253 0 2 tcp 1040 ------- 1 0.0 3.0 50 99
+ 0.985253 2 3 tcp 1040 ------- 1 0.0 3.0 50 99
- 0.985253 2 3 tcp 1040 ------- 1 0.0 3.0 50 99
r 0.989413 0 2 tcp 1040 ------- 1 0.0 3.0 51 100
+ 0.989413 2 3 tcp 1040 ------- 1 0.0 3.0 51 100
- 0.989413 2 3 tcp 1040 ------- 1 0.0 3.0 51 100
r 0.993573 0 2 tcp 1040 ------- 1 0.0 3.0 52 101
+ 0.993573 2 3 tcp 1040 ------- 1 0.0 3.0 52 101
- 0.993573 2 3 tcp 1040 ------- 1 0.0 3.0 52 101
r 1.003867 2 3 tcp 1040 ------- 1 0.0 3.0 49 98
+ 1.003867 3 2 ack 40 ------- 1 3.0 0.0 49 102
- 1.003867 3 2 ack 40 ------- 1 3.0 0.0 49 102
r 1.008027 2 3 tcp 1040 ------- 1 0.0 3.0 50 99
+ 1.008027 3 2 ack 40 ------- 1 3.0 0.0 50 103
- 1.008027 3 2 ack 40 ------- 1 3.0 0.0 50 103
r 1.012187 2 3 tcp 1040 ------- 1 0.0 3.0 51 100
+ 1.012187 3 2 ack 40 ------- 1 3.0 0.0 51 104
- 1.012187 3 2 ack 40 ------- 1 3.0 0.0 51 104
r 1.016347 2 3 tcp 1040 ------- 1 0.0 3.0 52 101
+ 1.016347 3 2 ack 40 ------- 1 3.0 0.0 52 105
- 1.016347 3 2 ack 40 ------- 1 3.0 0.0 52 105
r 1.023973 3 2 ack 40 ------- 1 3.0 0.0 49 102
+ 1.023973 2 0 ack 40 ------- 1 3.0 0.0 49 102
- 1.023973 2 0 ack 40 ------- 1 3.0 0.0 49 102
r 1.028133 3 2 ack 40 ------- 1 3.0 0.0 50 103
+ 1.028133 2 0 ack 40 ------- 1 3.0 0.0 50 103
- 1.028133 2 0 ack 40 ------- 1 3.0 0.0 50 103
r 1.032293 3 2 ack 40 ------- 1 3.0 0.0 51 104
+ 1.032293 2 0 ack 40 ------- 1 3.0 0.0 51 104
- 1.032293 2 0 ack 40 ------- 1 3.0 0.0 51 104
r 1.034133 2 0 ack 40 ------- 1 3.0 0.0 49 102
+ 1.034133 0 2 tcp 1040 ------- 1 0.0 3.0 53 106
- 1.034133 0 2 tcp 1040 ------- 1 0.0 3.0 53 106
r 1.036453 3 2 ack 40 ------- 1 3.0 0.0 52 105
+ 1.036453 2 0 ack 40 ------- 1 3.0 0.0 52 105
- 1.036453 2 0 ack 40 ------- 1 3.0 0.0 52 105
r 1.038293 2 0 ack 40 ------- 1 3.0 0.0 50 103
+ 1.038293 0 2 tcp 1040 ------- 1 0.0 3.0 54 107
- 1.038293 0 2 tcp 1040 ------- 1 0.0 3.0 54 107
r 1.042453 2 0 ack 40 ------- 1 3.0 0.0 51 104
+ 1.042453 0 2 tcp 1040 ------- 1 0.0 3.0 55 108
- 1.042453 0 2 tcp 1040 ------- 1 0.0 3.0 55 108