h 0.5 1 3 cbr 1000 ------- 0 1.0 0.0 0 0
h 0.5 2 3 cbr 1000 ------- 0 2.0 0.1 0 1
+ 0.5 1 3 cbr 1000 ------- 0 1.0 0.0 0 0
- 0.5 1 3 cbr 1000 ------- 0 1.0 0.0 0 0
+ 0.5 2 3 cbr 1000 ------- 0 2.0 0.1 0 1
- 0.5 2 3 cbr 1000 ------- 0 2.0 0.1 0 1
r 0.50838 3 0 cbr 1000 ------- 0 2.0 0.1 0 1
r 0.516592 3 0 cbr 1000 ------- 0 1.0 0.0 0 0
h 0.58 1 3 cbr 1000 ------- 0 1.0 0.0 1 2
h 0.58 2 3 cbr 1000 ------- 0 2.0 0.1 1 3
+ 0.58 1 3 cbr 1000 ------- 0 1.0 0.0 1 2
- 0.58 1 3 cbr 1000 ------- 0 1.0 0.0 1 2
+ 0.58 2 3 cbr 1000 ------- 0 2.0 0.1 1 3
- 0.58 2 3 cbr 1000 ------- 0 2.0 0.1 1 3
r 0.588892 3 0 cbr 1000 ------- 0 1.0 0.0 1 2
r 0.597104 3 0 cbr 1000 ------- 0 2.0 0.1 1 3
h 0.66 1 3 cbr 1000 ------- 0 1.0 0.0 2 4
h 0.66 2 3 cbr 1000 ------- 0 2.0 0.1 2 5
+ 0.66 1 3 cbr 1000 ------- 0 1.0 0.0 2 4
- 0.66 1 3 cbr 1000 ------- 0 1.0 0.0 2 4
+ 0.66 2 3 cbr 1000 ------- 0 2.0 0.1 2 5
- 0.66 2 3 cbr 1000 ------- 0 2.0 0.1 2 5
r 0.668248 3 0 cbr 1000 ------- 0 1.0 0.0 2 4
r 0.67646 3 0 cbr 1000 ------- 0 2.0 0.1 2 5
h 0.74 1 3 cbr 1000 ------- 0 1.0 0.0 3 6
h 0.74 2 3 cbr 1000 ------- 0 2.0 0.1 3 7
+ 0.74 1 3 cbr 1000 ------- 0 1.0 0.0 3 6
- 0.74 1 3 cbr 1000 ------- 0 1.0 0.0 3 6
+ 0.74 2 3 cbr 1000 ------- 0 2.0 0.1 3 7
- 0.74 2 3 cbr 1000 ------- 0 2.0 0.1 3 7
r 0.748248 3 0 cbr 1000 ------- 0 1.0 0.0 3 6
r 0.75646 3 0 cbr 1000 ------- 0 2.0 0.1 3 7
h 0.82 1 3 cbr 1000 ------- 0 1.0 0.0 4 8
h 0.82 2 3 cbr 1000 ------- 0 2.0 0.1 4 9
+ 0.82 1 3 cbr 1000 ------- 0 1.0 0.0 4 8
- 0.82 1 3 cbr 1000 ------- 0 1.0 0.0 4 8
+ 0.82 2 3 cbr 1000 ------- 0 2.0 0.1 4 9
- 0.82 2 3 cbr 1000 ------- 0 2.0 0.1 4 9
r 0.831584 3 0 cbr 1000 ------- 0 1.0 0.0 4 8
r 0.839796 3 0 cbr 1000 ------- 0 2.0 0.1 4 9
h 0.9 1 3 cbr 1000 ------- 0 1.0 0.0 5 10
h 0.9 2 3 cbr 1000 ------- 0 2.0 0.1 5 11
+ 0.9 1 3 cbr 1000 ------- 0 1.0 0.0 5 10
- 0.9 1 3 cbr 1000 ------- 0 1.0 0.0 5 10
+ 0.9 2 3 cbr 1000 ------- 0 2.0 0.1 5 11
- 0.9 2 3 cbr 1000 ------- 0 2.0 0.1 5 11
r 0.909404 3 0 cbr 1000 ------- 0 1.0 0.0 5 10
r 0.917616 3 0 cbr 1000 ------- 0 2.0 0.1 5 11
h 0.98 1 3 cbr 1000 ------- 0 1.0 0.0 6 12
h 0.98 2 3 cbr 1000 ------- 0 2.0 0.1 6 13
+ 0.98 1 3 cbr 1000 ------- 0 1.0 0.0 6 12
- 0.98 1 3 cbr 1000 ------- 0 1.0 0.0 6 12
+ 0.98 2 3 cbr 1000 ------- 0 2.0 0.1 6 13
- 0.98 2 3 cbr 1000 ------- 0 2.0 0.1 6 13
r 0.988248 3 0 cbr 1000 ------- 0 1.0 0.0 6 12
r 0.99646 3 0 cbr 1000 ------- 0 2.0 0.1 6 13
h 1.06 1 3 cbr 1000 ------- 0 1.0 0.0 7 14
h 1.06 2 3 cbr 1000 ------- 0 2.0 0.1 7 15
+ 1.06 1 3 cbr 1000 ------- 0 1.0 0.0 7 14
- 1.06 1 3 cbr 1000 ------- 0 1.0 0.0 7 14
+ 1.06 2 3 cbr 1000 ------- 0 2.0 0.1 7 15
- 1.06 2 3 cbr 1000 ------- 0 2.0 0.1 7 15
r 1.069404 3 0 cbr 1000 ------- 0 2.0 0.1 7 15
r 1.077616 3 0 cbr 1000 ------- 0 1.0 0.0 7 14
h 1.14 1 3 cbr 1000 ------- 0 1.0 0.0 8 16
h 1.14 2 3 cbr 1000 ------- 0 2.0 0.1 8 17
+ 1.14 1 3 cbr 1000 ------- 0 1.0 0.0 8 16
- 1.14 1 3 cbr 1000 ------- 0 1.0 0.0 8 16
+ 1.14 2 3 cbr 1000 ------- 0 2.0 0.1 8 17
- 1.14 2 3 cbr 1000 ------- 0 2.0 0.1 8 17
r 1.148248 3 0 cbr 1000 ------- 0 1.0 0.0 8 16
r 1.15646 3 0 cbr 1000 ------- 0 2.0 0.1 8 17
h 1.22 1 3 cbr 1000 ------- 0 1.0 0.0 9 18
h 1.22 2 3 cbr 1000 ------- 0 2.0 0.1 9 19
+ 1.22 1 3 cbr 1000 ------- 0 1.0 0.0 9 18
- 1.22 1 3 cbr 1000 ------- 0 1.0 0.0 9 18
+ 1.22 2 3 cbr 1000 ------- 0 2.0 0.1 9 19
- 1.22 2 3 cbr 1000 ------- 0 2.0 0.1 9 19
r 1.228248 3 0 cbr 1000 ------- 0 2.0 0.1 9 19
r 1.23646 3 0 cbr 1000 ------- 0 1.0 0.0 9 18
h 1.3 1 3 cbr 1000 ------- 0 1.0 0.0 10 20
h 1.3 2 3 cbr 1000 ------- 0 2.0 0.1 10 21
+ 1.3 1 3 cbr 1000 ------- 0 1.0 0.0 10 20
- 1.3 1 3 cbr 1000 ------- 0 1.0 0.0 10 20
+ 1.3 2 3 cbr 1000 ------- 0 2.0 0.1 10 21
- 1.3 2 3 cbr 1000 ------- 0 2.0 0.1 10 21
r 1.312096 3 0 cbr 1000 ------- 0 1.0 0.0 10 20
r 1.320308 3 0 cbr 1000 ------- 0 2.0 0.1 10 21
h 1.38 1 3 cbr 1000 ------- 0 1.0 0.0 11 22
h 1.38 2 3 cbr 1000 ------- 0 2.0 0.1 11 23
+ 1.38 1 3 cbr 1000 ------- 0 1.0 0.0 11 22
- 1.38 1 3 cbr 1000 ------- 0 1.0 0.0 11 22
+ 1.38 2 3 cbr 1000 ------- 0 2.0 0.1 11 23
- 1.38 2 3 cbr 1000 ------- 0 2.0 0.1 11 23
r 1.389404 3 0 cbr 1000 ------- 0 1.0 0.0 11 22
r 1.397616 3 0 cbr 1000 ------- 0 2.0 0.1 11 23
h 1.46 1 3 cbr 1000 ------- 0 1.0 0.0 12 24
h 1.46 2 3 cbr 1000 ------- 0 2.0 0.1 12 25
+ 1.46 1 3 cbr 1000 ------- 0 1.0 0.0 12 24
- 1.46 1 3 cbr 1000 ------- 0 1.0 0.0 12 24
+ 1.46 2 3 cbr 1000 ------- 0 2.0 0.1 12 25
- 1.46 2 3 cbr 1000 ------- 0 2.0 0.1 12 25
r 1.469404 3 0 cbr 1000 ------- 0 2.0 0.1 12 25
r 1.477616 3 0 cbr 1000 ------- 0 1.0 0.0 12 24
h 1.54 1 3 cbr 1000 ------- 0 1.0 0.0 13 26
h 1.54 2 3 cbr 1000 ------- 0 2.0 0.1 13 27
+ 1.54 1 3 cbr 1000 ------- 0 1.0 0.0 13 26
- 1.54 1 3 cbr 1000 ------- 0 1.0 0.0 13 26
+ 1.54 2 3 cbr 1000 ------- 0 2.0 0.1 13 27
- 1.54 2 3 cbr 1000 ------- 0 2.0 0.1 13 27
r 1.549024 3 0 cbr 1000 ------- 0 2.0 0.1 13 27
r 1.557236 3 0 cbr 1000 ------- 0 1.0 0.0 13 26
h 1.62 1 3 cbr 1000 ------- 0 1.0 0.0 14 28
h 1.62 2 3 cbr 1000 ------- 0 2.0 0.1 14 29
+ 1.62 1 3 cbr 1000 ------- 0 1.0 0.0 14 28
- 1.62 1 3 cbr 1000 ------- 0 1.0 0.0 14 28
+ 1.62 2 3 cbr 1000 ------- 0 2.0 0.1 14 29
- 1.62 2 3 cbr 1000 ------- 0 2.0 0.1 14 29
r 1.628248 3 0 cbr 1000 ------- 0 1.0 0.0 14 28
r 1.63646 3 0 cbr 1000 ------- 0 2.0 0.1 14 29
h 1.7 1 3 cbr 1000 ------- 0 1.0 0.0 15 30
h 1.7 2 3 cbr 1000 ------- 0 2.0 0.1 15 31
+ 1.7 1 3 cbr 1000 ------- 0 1.0 0.0 15 30
- 1.7 1 3 cbr 1000 ------- 0 1.0 0.0 15 30
+ 1.7 2 3 cbr 1000 ------- 0 2.0 0.1 15 31
- 1.7 2 3 cbr 1000 ------- 0 2.0 0.1 15 31
r 1.709916 3 0 cbr 1000 ------- 0 1.0 0.0 15 30
r 1.718128 3 0 cbr 1000 ------- 0 2.0 0.1 15 31
h 1.78 1 3 cbr 1000 ------- 0 1.0 0.0 16 32
h 1.78 2 3 cbr 1000 ------- 0 2.0 0.1 16 33
+ 1.78 1 3 cbr 1000 ------- 0 1.0 0.0 16 32
- 1.78 1 3 cbr 1000 ------- 0 1.0 0.0 16 32
+ 1.78 2 3 cbr 1000 ------- 0 2.0 0.1 16 33
- 1.78 2 3 cbr 1000 ------- 0 2.0 0.1 16 33
r 1.788248 3 0 cbr 1000 ------- 0 1.0 0.0 16 32
r 1.79646 3 0 cbr 1000 ------- 0 2.0 0.1 16 33
h 1.86 1 3 cbr 1000 ------- 0 1.0 0.0 17 34
h 1.86 2 3 cbr 1000 ------- 0 2.0 0.1 17 35
+ 1.86 1 3 cbr 1000 ------- 0 1.0 0.0 17 34
- 1.86 1 3 cbr 1000 ------- 0 1.0 0.0 17 34
+ 1.86 2 3 cbr 1000 ------- 0 2.0 0.1 17 35
- 1.86 2 3 cbr 1000 ------- 0 2.0 0.1 17 35
r 1.868248 3 0 cbr 1000 ------- 0 1.0 0.0 17 34
r 1.87646 3 0 cbr 1000 ------- 0 2.0 0.1 17 35
h 1.94 1 3 cbr 1000 ------- 0 1.0 0.0 18 36
h 1.94 2 3 cbr 1000 ------- 0 2.0 0.1 18 37
+ 1.94 1 3 cbr 1000 ------- 0 1.0 0.0 18 36
- 1.94 1 3 cbr 1000 ------- 0 1.0 0.0 18 36
+ 1.94 2 3 cbr 1000 ------- 0 2.0 0.1 18 37
- 1.94 2 3 cbr 1000 ------- 0 2.0 0.1 18 37
r 1.948892 3 0 cbr 1000 ------- 0 1.0 0.0 18 36
r 1.957104 3 0 cbr 1000 ------- 0 2.0 0.1 18 37
h 2.02 1 3 cbr 1000 ------- 0 1.0 0.0 19 38
h 2.02 2 3 cbr 1000 ------- 0 2.0 0.1 19 39
+ 2.02 1 3 cbr 1000 ------- 0 1.0 0.0 19 38
- 2.02 1 3 cbr 1000 ------- 0 1.0 0.0 19 38
+ 2.02 2 3 cbr 1000 ------- 0 2.0 0.1 19 39
- 2.02 2 3 cbr 1000 ------- 0 2.0 0.1 19 39
r 2.02838 3 0 cbr 1000 ------- 0 1.0 0.0 19 38
r 2.036592 3 0 cbr 1000 ------- 0 2.0 0.1 19 39
h 2.1 1 3 cbr 1000 ------- 0 1.0 0.0 20 40
h 2.1 2 3 cbr 1000 ------- 0 2.0 0.1 20 41
+ 2.1 1 3 cbr 1000 ------- 0 1.0 0.0 20 40
- 2.1 1 3 cbr 1000 ------- 0 1.0 0.0 20 40
+ 2.1 2 3 cbr 1000 ------- 0 2.0 0.1 20 41
- 2.1 2 3 cbr 1000 ------- 0 2.0 0.1 20 41
r 2.108248 3 0 cbr 1000 ------- 0 2.0 0.1 20 41
r 2.11646 3 0 cbr 1000 ------- 0 1.0 0.0 20 40
h 2.18 1 3 cbr 1000 ------- 0 1.0 0.0 21 42
h 2.18 2 3 cbr 1000 ------- 0 2.0 0.1 21 43
+ 2.18 1 3 cbr 1000 ------- 0 1.0 0.0 21 42
- 2.18 1 3 cbr 1000 ------- 0 1.0 0.0 21 42
+ 2.18 2 3 cbr 1000 ------- 0 2.0 0.1 21 43
- 2.18 2 3 cbr 1000 ------- 0 2.0 0.1 21 43
r 2.188892 3 0 cbr 1000 ------- 0 2.0 0.1 21 43
r 2.197104 3 0 cbr 1000 ------- 0 1.0 0.0 21 42
h 2.26 1 3 cbr 1000 ------- 0 1.0 0.0 22 44
h 2.26 2 3 cbr 1000 ------- 0 2.0 0.1 22 45
+ 2.26 1 3 cbr 1000 ------- 0 1.0 0.0 22 44
- 2.26 1 3 cbr 1000 ------- 0 1.0 0.0 22 44
+ 2.26 2 3 cbr 1000 ------- 0 2.0 0.1 22 45
- 2.26 2 3 cbr 1000 ------- 0 2.0 0.1 22 45
r 2.26838 3 0 cbr 1000 ------- 0 1.0 0.0 22 44
r 2.276592 3 0 cbr 1000 ------- 0 2.0 0.1 22 45
h 2.34 1 3 cbr 1000 ------- 0 1.0 0.0 23 46
h 2.34 2 3 cbr 1000 ------- 0 2.0 0.1 23 47
+ 2.34 1 3 cbr 1000 ------- 0 1.0 0.0 23 46
- 2.34 1 3 cbr 1000 ------- 0 1.0 0.0 23 46
+ 2.34 2 3 cbr 1000 ------- 0 2.0 0.1 23 47
- 2.34 2 3 cbr 1000 ------- 0 2.0 0.1 23 47
r 2.348248 3 0 cbr 1000 ------- 0 1.0 0.0 23 46
r 2.35646 3 0 cbr 1000 ------- 0 2.0 0.1 23 47
h 2.42 1 3 cbr 1000 ------- 0 1.0 0.0 24 48
h 2.42 2 3 cbr 1000 ------- 0 2.0 0.1 24 49
+ 2.42 1 3 cbr 1000 ------- 0 1.0 0.0 24 48
- 2.42 1 3 cbr 1000 ------- 0 1.0 0.0 24 48
+ 2.42 2 3 cbr 1000 ------- 0 2.0 0.1 24 49
- 2.42 2 3 cbr 1000 ------- 0 2.0 0.1 24 49
r 2.428248 3 0 cbr 1000 ------- 0 1.0 0.0 24 48
r 2.43646 3 0 cbr 1000 ------- 0 2.0 0.1 24 49
h 2.5 1 3 cbr 1000 ------- 0 1.0 0.0 25 50
h 2.5 2 3 cbr 1000 ------- 0 2.0 0.1 25 51
+ 2.5 1 3 cbr 1000 ------- 0 1.0 0.0 25 50
- 2.5 1 3 cbr 1000 ------- 0 1.0 0.0 25 50
+ 2.5 2 3 cbr 1000 ------- 0 2.0 0.1 25 51
- 2.5 2 3 cbr 1000 ------- 0 2.0 0.1 25 51
r 2.508248 3 0 cbr 1000 ------- 0 2.0 0.1 25 51
r 2.51646 3 0 cbr 1000 ------- 0 1.0 0.0 25 50
h 2.58 1 3 cbr 1000 ------- 0 1.0 0.0 26 52
h 2.58 2 3 cbr 1000 ------- 0 2.0 0.1 26 53
+ 2.58 1 3 cbr 1000 ------- 0 1.0 0.0 26 52
- 2.58 1 3 cbr 1000 ------- 0 1.0 0.0 26 52
+ 2.58 2 3 cbr 1000 ------- 0 2.0 0.1 26 53
- 2.58 2 3 cbr 1000 ------- 0 2.0 0.1 26 53
r 2.590048 3 0 cbr 1000 ------- 0 1.0 0.0 26 52
r 2.59826 3 0 cbr 1000 ------- 0 2.0 0.1 26 53
h 2.66 1 3 cbr 1000 ------- 0 1.0 0.0 27 54
h 2.66 2 3 cbr 1000 ------- 0 2.0 0.1 27 55
+ 2.66 1 3 cbr 1000 ------- 0 1.0 0.0 27 54
- 2.66 1 3 cbr 1000 ------- 0 1.0 0.0 27 54
+ 2.66 2 3 cbr 1000 ------- 0 2.0 0.1 27 55
- 2.66 2 3 cbr 1000 ------- 0 2.0 0.1 27 55
r 2.668892 3 0 cbr 1000 ------- 0 1.0 0.0 27 54
r 2.677104 3 0 cbr 1000 ------- 0 2.0 0.1 27 55
h 2.74 1 3 cbr 1000 ------- 0 1.0 0.0 28 56
h 2.74 2 3 cbr 1000 ------- 0 2.0 0.1 28 57
+ 2.74 1 3 cbr 1000 ------- 0 1.0 0.0 28 56
- 2.74 1 3 cbr 1000 ------- 0 1.0 0.0 28 56
+ 2.74 2 3 cbr 1000 ------- 0 2.0 0.1 28 57
- 2.74 2 3 cbr 1000 ------- 0 2.0 0.1 28 57
r 2.748248 3 0 cbr 1000 ------- 0 1.0 0.0 28 56
r 2.75646 3 0 cbr 1000 ------- 0 2.0 0.1 28 57
h 2.82 1 3 cbr 1000 ------- 0 1.0 0.0 29 58
h 2.82 2 3 cbr 1000 ------- 0 2.0 0.1 29 59
+ 2.82 1 3 cbr 1000 ------- 0 1.0 0.0 29 58
- 2.82 1 3 cbr 1000 ------- 0 1.0 0.0 29 58
+ 2.82 2 3 cbr 1000 ------- 0 2.0 0.1 29 59
- 2.82 2 3 cbr 1000 ------- 0 2.0 0.1 29 59
r 2.828248 3 0 cbr 1000 ------- 0 2.0 0.1 29 59
r 2.83646 3 0 cbr 1000 ------- 0 1.0 0.0 29 58
h 2.9 1 3 cbr 1000 ------- 0 1.0 0.0 30 60
h 2.9 2 3 cbr 1000 ------- 0 2.0 0.1 30 61
+ 2.9 1 3 cbr 1000 ------- 0 1.0 0.0 30 60
- 2.9 1 3 cbr 1000 ------- 0 1.0 0.0 30 60
+ 2.9 2 3 cbr 1000 ------- 0 2.0 0.1 30 61
- 2.9 2 3 cbr 1000 ------- 0 2.0 0.1 30 61
r 2.908248 3 0 cbr 1000 ------- 0 2.0 0.1 30 61
r 2.91646 3 0 cbr 1000 ------- 0 1.0 0.0 30 60
h 2.98 1 3 cbr 1000 ------- 0 1.0 0.0 31 62
h 2.98 2 3 cbr 1000 ------- 0 2.0 0.1 31 63
+ 2.98 1 3 cbr 1000 ------- 0 1.0 0.0 31 62
- 2.98 1 3 cbr 1000 ------- 0 1.0 0.0 31 62
+ 2.98 2 3 cbr 1000 ------- 0 2.0 0.1 31 63
- 2.98 2 3 cbr 1000 ------- 0 2.0 0.1 31 63
r 2.995812 3 0 cbr 1000 ------- 0 1.0 0.0 31 62
r 3.004024 3 0 cbr 1000 ------- 0 2.0 0.1 31 63
h 3.06 1 3 cbr 1000 ------- 0 1.0 0.0 32 64
h 3.06 2 3 cbr 1000 ------- 0 2.0 0.1 32 65
+ 3.06 1 3 cbr 1000 ------- 0 1.0 0.0 32 64
- 3.06 1 3 cbr 1000 ------- 0 1.0 0.0 32 64
+ 3.06 2 3 cbr 1000 ------- 0 2.0 0.1 32 65
- 3.06 2 3 cbr 1000 ------- 0 2.0 0.1 32 65
r 3.068248 3 0 cbr 1000 ------- 0 2.0 0.1 32 65
r 3.07646 3 0 cbr 1000 ------- 0 1.0 0.0 32 64
h 3.14 1 3 cbr 1000 ------- 0 1.0 0.0 33 66
h 3.14 2 3 cbr 1000 ------- 0 2.0 0.1 33 67
+ 3.14 1 3 cbr 1000 ------- 0 1.0 0.0 33 66
- 3.14 1 3 cbr 1000 ------- 0 1.0 0.0 33 66
+ 3.14 2 3 cbr 1000 ------- 0 2.0 0.1 33 67
- 3.14 2 3 cbr 1000 ------- 0 2.0 0.1 33 67
r 3.148248 3 0 cbr 1000 ------- 0 1.0 0.0 33 66
r 3.15646 3 0 cbr 1000 ------- 0 2.0 0.1 33 67
h 3.22 1 3 cbr 1000 ------- 0 1.0 0.0 34 68
h 3.22 2 3 cbr 1000 ------- 0 2.0 0.1 34 69
+ 3.22 1 3 cbr 1000 ------- 0 1.0 0.0 34 68
- 3.22 1 3 cbr 1000 ------- 0 1.0 0.0 34 68
+ 3.22 2 3 cbr 1000 ------- 0 2.0 0.1 34 69
- 3.22 2 3 cbr 1000 ------- 0 2.0 0.1 34 69
r 3.228248 3 0 cbr 1000 ------- 0 2.0 0.1 34 69
r 3.23646 3 0 cbr 1000 ------- 0 1.0 0.0 34 68
h 3.3 1 3 cbr 1000 ------- 0 1.0 0.0 35 70
h 3.3 2 3 cbr 1000 ------- 0 2.0 0.1 35 71
+ 3.3 1 3 cbr 1000 ------- 0 1.0 0.0 35 70
- 3.3 1 3 cbr 1000 ------- 0 1.0 0.0 35 70
+ 3.3 2 3 cbr 1000 ------- 0 2.0 0.1 35 71
- 3.3 2 3 cbr 1000 ------- 0 2.0 0.1 35 71
r 3.308248 3 0 cbr 1000 ------- 0 1.0 0.0 35 70
r 3.31646 3 0 cbr 1000 ------- 0 2.0 0.1 35 71
h 3.38 1 3 cbr 1000 ------- 0 1.0 0.0 36 72
h 3.38 2 3 cbr 1000 ------- 0 2.0 0.1 36 73
+ 3.38 1 3 cbr 1000 ------- 0 1.0 0.0 36 72
- 3.38 1 3 cbr 1000 ------- 0 1.0 0.0 36 72
+ 3.38 2 3 cbr 1000 ------- 0 2.0 0.1 36 73
- 3.38 2 3 cbr 1000 ------- 0 2.0 0.1 36 73
r 3.388248 3 0 cbr 1000 ------- 0 1.0 0.0 36 72
r 3.39646 3 0 cbr 1000 ------- 0 2.0 0.1 36 73
h 3.46 1 3 cbr 1000 ------- 0 1.0 0.0 37 74
h 3.46 2 3 cbr 1000 ------- 0 2.0 0.1 37 75
+ 3.46 1 3 cbr 1000 ------- 0 1.0 0.0 37 74
- 3.46 1 3 cbr 1000 ------- 0 1.0 0.0 37 74
+ 3.46 2 3 cbr 1000 ------- 0 2.0 0.1 37 75
- 3.46 2 3 cbr 1000 ------- 0 2.0 0.1 37 75
r 3.46838 3 0 cbr 1000 ------- 0 2.0 0.1 37 75
r 3.476592 3 0 cbr 1000 ------- 0 1.0 0.0 37 74
h 3.54 1 3 cbr 1000 ------- 0 1.0 0.0 38 76
h 3.54 2 3 cbr 1000 ------- 0 2.0 0.1 38 77
+ 3.54 1 3 cbr 1000 ------- 0 1.0 0.0 38 76
- 3.54 1 3 cbr 1000 ------- 0 1.0 0.0 38 76
+ 3.54 2 3 cbr 1000 ------- 0 2.0 0.1 38 77
- 3.54 2 3 cbr 1000 ------- 0 2.0 0.1 38 77
r 3.54838 3 0 cbr 1000 ------- 0 1.0 0.0 38 76
r 3.556592 3 0 cbr 1000 ------- 0 2.0 0.1 38 77
h 3.62 1 3 cbr 1000 ------- 0 1.0 0.0 39 78
h 3.62 2 3 cbr 1000 ------- 0 2.0 0.1 39 79
+ 3.62 1 3 cbr 1000 ------- 0 1.0 0.0 39 78
- 3.62 1 3 cbr 1000 ------- 0 1.0 0.0 39 78
+ 3.62 2 3 cbr 1000 ------- 0 2.0 0.1 39 79
- 3.62 2 3 cbr 1000 ------- 0 2.0 0.1 39 79
r 3.628248 3 0 cbr 1000 ------- 0 2.0 0.1 39 79
r 3.63646 3 0 cbr 1000 ------- 0 1.0 0.0 39 78
h 3.7 1 3 cbr 1000 ------- 0 1.0 0.0 40 80
h 3.7 2 3 cbr 1000 ------- 0 2.0 0.1 40 81
+ 3.7 1 3 cbr 1000 ------- 0 1.0 0.0 40 80
- 3.7 1 3 cbr 1000 ------- 0 1.0 0.0 40 80
+ 3.7 2 3 cbr 1000 ------- 0 2.0 0.1 40 81
- 3.7 2 3 cbr 1000 ------- 0 2.0 0.1 40 81
r 3.708248 3 0 cbr 1000 ------- 0 2.0 0.1 40 81
r 3.71646 3 0 cbr 1000 ------- 0 1.0 0.0 40 80
h 3.78 1 3 cbr 1000 ------- 0 1.0 0.0 41 82
h 3.78 2 3 cbr 1000 ------- 0 2.0 0.1 41 83
+ 3.78 1 3 cbr 1000 ------- 0 1.0 0.0 41 82
- 3.78 1 3 cbr 1000 ------- 0 1.0 0.0 41 82
+ 3.78 2 3 cbr 1000 ------- 0 2.0 0.1 41 83
- 3.78 2 3 cbr 1000 ------- 0 2.0 0.1 41 83
r 3.788248 3 0 cbr 1000 ------- 0 2.0 0.1 41 83
r 3.79646 3 0 cbr 1000 ------- 0 1.0 0.0 41 82
h 3.86 1 3 cbr 1000 ------- 0 1.0 0.0 42 84
h 3.86 2 3 cbr 1000 ------- 0 2.0 0.1 42 85
+ 3.86 1 3 cbr 1000 ------- 0 1.0 0.0 42 84
- 3.86 1 3 cbr 1000 ------- 0 1.0 0.0 42 84
+ 3.86 2 3 cbr 1000 ------- 0 2.0 0.1 42 85
- 3.86 2 3 cbr 1000 ------- 0 2.0 0.1 42 85
r 3.86838 3 0 cbr 1000 ------- 0 2.0 0.1 42 85
r 3.876592 3 0 cbr 1000 ------- 0 1.0 0.0 42 84
h 3.94 1 3 cbr 1000 ------- 0 1.0 0.0 43 86
h 3.94 2 3 cbr 1000 ------- 0 2.0 0.1 43 87
+ 3.94 1 3 cbr 1000 ------- 0 1.0 0.0 43 86
- 3.94 1 3 cbr 1000 ------- 0 1.0 0.0 43 86
+ 3.94 2 3 cbr 1000 ------- 0 2.0 0.1 43 87
- 3.94 2 3 cbr 1000 ------- 0 2.0 0.1 43 87
r 3.948248 3 0 cbr 1000 ------- 0 1.0 0.0 43 86
r 3.95646 3 0 cbr 1000 ------- 0 2.0 0.1 43 87
h 4.02 1 3 cbr 1000 ------- 0 1.0 0.0 44 88
h 4.02 2 3 cbr 1000 ------- 0 2.0 0.1 44 89
+ 4.02 1 3 cbr 1000 ------- 0 1.0 0.0 44 88
- 4.02 1 3 cbr 1000 ------- 0 1.0 0.0 44 88
+ 4.02 2 3 cbr 1000 ------- 0 2.0 0.1 44 89
- 4.02 2 3 cbr 1000 ------- 0 2.0 0.1 44 89
r 4.028248 3 0 cbr 1000 ------- 0 1.0 0.0 44 88
r 4.03646 3 0 cbr 1000 ------- 0 2.0 0.1 44 89
h 4.1 1 3 cbr 1000 ------- 0 1.0 0.0 45 90
h 4.1 2 3 cbr 1000 ------- 0 2.0 0.1 45 91
+ 4.1 1 3 cbr 1000 ------- 0 1.0 0.0 45 90
- 4.1 1 3 cbr 1000 ------- 0 1.0 0.0 45 90
+ 4.1 2 3 cbr 1000 ------- 0 2.0 0.1 45 91
- 4.1 2 3 cbr 1000 ------- 0 2.0 0.1 45 91
r 4.108248 3 0 cbr 1000 ------- 0 1.0 0.0 45 90
r 4.11646 3 0 cbr 1000 ------- 0 2.0 0.1 45 91
h 4.18 1 3 cbr 1000 ------- 0 1.0 0.0 46 92
h 4.18 2 3 cbr 1000 ------- 0 2.0 0.1 46 93
+ 4.18 1 3 cbr 1000 ------- 0 1.0 0.0 46 92
- 4.18 1 3 cbr 1000 ------- 0 1.0 0.0 46 92
+ 4.18 2 3 cbr 1000 ------- 0 2.0 0.1 46 93
- 4.18 2 3 cbr 1000 ------- 0 2.0 0.1 46 93
r 4.188248 3 0 cbr 1000 ------- 0 2.0 0.1 46 93
r 4.19646 3 0 cbr 1000 ------- 0 1.0 0.0 46 92
h 4.26 1 3 cbr 1000 ------- 0 1.0 0.0 47 94
h 4.26 2 3 cbr 1000 ------- 0 2.0 0.1 47 95
+ 4.26 1 3 cbr 1000 ------- 0 1.0 0.0 47 94
- 4.26 1 3 cbr 1000 ------- 0 1.0 0.0 47 94
+ 4.26 2 3 cbr 1000 ------- 0 2.0 0.1 47 95
- 4.26 2 3 cbr 1000 ------- 0 2.0 0.1 47 95
r 4.268248 3 0 cbr 1000 ------- 0 2.0 0.1 47 95
r 4.27646 3 0 cbr 1000 ------- 0 1.0 0.0 47 94
h 4.34 1 3 cbr 1000 ------- 0 1.0 0.0 48 96
h 4.34 2 3 cbr 1000 ------- 0 2.0 0.1 48 97
+ 4.34 1 3 cbr 1000 ------- 0 1.0 0.0 48 96
- 4.34 1 3 cbr 1000 ------- 0 1.0 0.0 48 96
+ 4.34 2 3 cbr 1000 ------- 0 2.0 0.1 48 97
- 4.34 2 3 cbr 1000 ------- 0 2.0 0.1 48 97
r 4.348248 3 0 cbr 1000 ------- 0 1.0 0.0 48 96
r 4.35646 3 0 cbr 1000 ------- 0 2.0 0.1 48 97
h 4.42 1 3 cbr 1000 ------- 0 1.0 0.0 49 98
h 4.42 2 3 cbr 1000 ------- 0 2.0 0.1 49 99
+ 4.42 1 3 cbr 1000 ------- 0 1.0 0.0 49 98
- 4.42 1 3 cbr 1000 ------- 0 1.0 0.0 49 98
+ 4.42 2 3 cbr 1000 ------- 0 2.0 0.1 49 99
- 4.42 2 3 cbr 1000 ------- 0 2.0 0.1 49 99
r 4.429536 3 0 cbr 1000 ------- 0 2.0 0.1 49 99
r 4.437748 3 0 cbr 1000 ------- 0 1.0 0.0 49 98
h 4.5 1 3 cbr 1000 ------- 0 1.0 0.0 50 100
h 4.5 2 3 cbr 1000 ------- 0 2.0 0.1 50 101
+ 4.5 1 3 cbr 1000 ------- 0 1.0 0.0 50 100
- 4.5 1 3 cbr 1000 ------- 0 1.0 0.0 50 100
+ 4.5 2 3 cbr 1000 ------- 0 2.0 0.1 50 101
- 4.5 2 3 cbr 1000 ------- 0 2.0 0.1 50 101
r 4.508248 3 0 cbr 1000 ------- 0 2.0 0.1 50 101
r 4.51646 3 0 cbr 1000 ------- 0 1.0 0.0 50 100
h 4.58 1 3 cbr 1000 ------- 0 1.0 0.0 51 102
h 4.58 2 3 cbr 1000 ------- 0 2.0 0.1 51 103
+ 4.58 1 3 cbr 1000 ------- 0 1.0 0.0 51 102
- 4.58 1 3 cbr 1000 ------- 0 1.0 0.0 51 102
+ 4.58 2 3 cbr 1000 ------- 0 2.0 0.1 51 103
- 4.58 2 3 cbr 1000 ------- 0 2.0 0.1 51 103
r 4.588248 3 0 cbr 1000 ------- 0 2.0 0.1 51 103
r 4.59646 3 0 cbr 1000 ------- 0 1.0 0.0 51 102
h 4.66 1 3 cbr 1000 ------- 0 1.0 0.0 52 104
h 4.66 2 3 cbr 1000 ------- 0 2.0 0.1 52 105
+ 4.66 1 3 cbr 1000 ------- 0 1.0 0.0 52 104
- 4.66 1 3 cbr 1000 ------- 0 1.0 0.0 52 104
+ 4.66 2 3 cbr 1000 ------- 0 2.0 0.1 52 105
- 4.66 2 3 cbr 1000 ------- 0 2.0 0.1 52 105
r 4.668248 3 0 cbr 1000 ------- 0 1.0 0.0 52 104
r 4.67646 3 0 cbr 1000 ------- 0 2.0 0.1 52 105
h 4.74 1 3 cbr 1000 ------- 0 1.0 0.0 53 106
h 4.74 2 3 cbr 1000 ------- 0 2.0 0.1 53 107
+ 4.74 1 3 cbr 1000 ------- 0 1.0 0.0 53 106
- 4.74 1 3 cbr 1000 ------- 0 1.0 0.0 53 106
+ 4.74 2 3 cbr 1000 ------- 0 2.0 0.1 53 107
- 4.74 2 3 cbr 1000 ------- 0 2.0 0.1 53 107
r 4.748248 3 0 cbr 1000 ------- 0 1.0 0.0 53 106
r 4.75646 3 0 cbr 1000 ------- 0 2.0 0.1 53 107
h 4.82 1 3 cbr 1000 ------- 0 1.0 0.0 54 108
h 4.82 2 3 cbr 1000 ------- 0 2.0 0.1 54 109
+ 4.82 1 3 cbr 1000 ------- 0 1.0 0.0 54 108
- 4.82 1 3 cbr 1000 ------- 0 1.0 0.0 54 108
+ 4.82 2 3 cbr 1000 ------- 0 2.0 0.1 54 109
- 4.82 2 3 cbr 1000 ------- 0 2.0 0.1 54 109
r 4.828248 3 0 cbr 1000 ------- 0 1.0 0.0 54 108
r 4.83646 3 0 cbr 1000 ------- 0 2.0 0.1 54 109
h 4.9 1 3 cbr 1000 ------- 0 1.0 0.0 55 110
h 4.9 2 3 cbr 1000 ------- 0 2.0 0.1 55 111
+ 4.9 1 3 cbr 1000 ------- 0 1.0 0.0 55 110
- 4.9 1 3 cbr 1000 ------- 0 1.0 0.0 55 110
+ 4.9 2 3 cbr 1000 ------- 0 2.0 0.1 55 111
- 4.9 2 3 cbr 1000 ------- 0 2.0 0.1 55 111
r 4.908248 3 0 cbr 1000 ------- 0 2.0 0.1 55 111
r 4.91646 3 0 cbr 1000 ------- 0 1.0 0.0 55 110
h 4.98 1 3 cbr 1000 ------- 0 1.0 0.0 56 112
h 4.98 2 3 cbr 1000 ------- 0 2.0 0.1 56 113
+ 4.98 1 3 cbr 1000 ------- 0 1.0 0.0 56 112
- 4.98 1 3 cbr 1000 ------- 0 1.0 0.0 56 112
+ 4.98 2 3 cbr 1000 ------- 0 2.0 0.1 56 113
- 4.98 2 3 cbr 1000 ------- 0 2.0 0.1 56 113
r 4.989916 3 0 cbr 1000 ------- 0 1.0 0.0 56 112
r 4.998128 3 0 cbr 1000 ------- 0 2.0 0.1 56 113
h 5.06 1 3 cbr 1000 ------- 0 1.0 0.0 57 114
h 5.06 2 3 cbr 1000 ------- 0 2.0 0.1 57 115
+ 5.06 1 3 cbr 1000 ------- 0 1.0 0.0 57 114
- 5.06 1 3 cbr 1000 ------- 0 1.0 0.0 57 114
+ 5.06 2 3 cbr 1000 ------- 0 2.0 0.1 57 115
- 5.06 2 3 cbr 1000 ------- 0 2.0 0.1 57 115
r 5.068248 3 0 cbr 1000 ------- 0 1.0 0.0 57 114
r 5.07646 3 0 cbr 1000 ------- 0 2.0 0.1 57 115
h 5.14 1 3 cbr 1000 ------- 0 1.0 0.0 58 116
h 5.14 2 3 cbr 1000 ------- 0 2.0 0.1 58 117
+ 5.14 1 3 cbr 1000 ------- 0 1.0 0.0 58 116
- 5.14 1 3 cbr 1000 ------- 0 1.0 0.0 58 116
+ 5.14 2 3 cbr 1000 ------- 0 2.0 0.1 58 117
- 5.14 2 3 cbr 1000 ------- 0 2.0 0.1 58 117
r 5.148892 3 0 cbr 1000 ------- 0 1.0 0.0 58 116
r 5.157104 3 0 cbr 1000 ------- 0 2.0 0.1 58 117
h 5.22 1 3 cbr 1000 ------- 0 1.0 0.0 59 118
h 5.22 2 3 cbr 1000 ------- 0 2.0 0.1 59 119
+ 5.22 1 3 cbr 1000 ------- 0 1.0 0.0 59 118
- 5.22 1 3 cbr 1000 ------- 0 1.0 0.0 59 118
+ 5.22 2 3 cbr 1000 ------- 0 2.0 0.1 59 119
- 5.22 2 3 cbr 1000 ------- 0 2.0 0.1 59 119
r 5.229024 3 0 cbr 1000 ------- 0 1.0 0.0 59 118
r 5.237236 3 0 cbr 1000 ------- 0 2.0 0.1 59 119
h 5.3 1 3 cbr 1000 ------- 0 1.0 0.0 60 120
h 5.3 2 3 cbr 1000 ------- 0 2.0 0.1 60 121
+ 5.3 1 3 cbr 1000 ------- 0 1.0 0.0 60 120
- 5.3 1 3 cbr 1000 ------- 0 1.0 0.0 60 120
+ 5.3 2 3 cbr 1000 ------- 0 2.0 0.1 60 121
- 5.3 2 3 cbr 1000 ------- 0 2.0 0.1 60 121
r 5.308248 3 0 cbr 1000 ------- 0 2.0 0.1 60 121
r 5.31646 3 0 cbr 1000 ------- 0 1.0 0.0 60 120
h 5.38 1 3 cbr 1000 ------- 0 1.0 0.0 61 122
h 5.38 2 3 cbr 1000 ------- 0 2.0 0.1 61 123
+ 5.38 1 3 cbr 1000 ------- 0 1.0 0.0 61 122
- 5.38 1 3 cbr 1000 ------- 0 1.0 0.0 61 122
+ 5.38 2 3 cbr 1000 ------- 0 2.0 0.1 61 123
- 5.38 2 3 cbr 1000 ------- 0 2.0 0.1 61 123
r 5.388248 3 0 cbr 1000 ------- 0 2.0 0.1 61 123
r 5.39646 3 0 cbr 1000 ------- 0 1.0 0.0 61 122
h 5.46 1 3 cbr 1000 ------- 0 1.0 0.0 62 124
h 5.46 2 3 cbr 1000 ------- 0 2.0 0.1 62 125
+ 5.46 1 3 cbr 1000 ------- 0 1.0 0.0 62 124
- 5.46 1 3 cbr 1000 ------- 0 1.0 0.0 62 124
+ 5.46 2 3 cbr 1000 ------- 0 2.0 0.1 62 125
- 5.46 2 3 cbr 1000 ------- 0 2.0 0.1 62 125
r 5.46838 3 0 cbr 1000 ------- 0 2.0 0.1 62 125
r 5.476592 3 0 cbr 1000 ------- 0 1.0 0.0 62 124
h 5.54 1 3 cbr 1000 ------- 0 1.0 0.0 63 126
h 5.54 2 3 cbr 1000 ------- 0 2.0 0.1 63 127
+ 5.54 1 3 cbr 1000 ------- 0 1.0 0.0 63 126
- 5.54 1 3 cbr 1000 ------- 0 1.0 0.0 63 126
+ 5.54 2 3 cbr 1000 ------- 0 2.0 0.1 63 127
- 5.54 2 3 cbr 1000 ------- 0 2.0 0.1 63 127
r 5.54838 3 0 cbr 1000 ------- 0 2.0 0.1 63 127
r 5.556592 3 0 cbr 1000 ------- 0 1.0 0.0 63 126
h 5.62 1 3 cbr 1000 ------- 0 1.0 0.0 64 128
h 5.62 2 3 cbr 1000 ------- 0 2.0 0.1 64 129
+ 5.62 1 3 cbr 1000 ------- 0 1.0 0.0 64 128
- 5.62 1 3 cbr 1000 ------- 0 1.0 0.0 64 128
+ 5.62 2 3 cbr 1000 ------- 0 2.0 0.1 64 129
- 5.62 2 3 cbr 1000 ------- 0 2.0 0.1 64 129
r 5.628248 3 0 cbr 1000 ------- 0 1.0 0.0 64 128
r 5.63646 3 0 cbr 1000 ------- 0 2.0 0.1 64 129
h 5.7 1 3 cbr 1000 ------- 0 1.0 0.0 65 130
h 5.7 2 3 cbr 1000 ------- 0 2.0 0.1 65 131
+ 5.7 1 3 cbr 1000 ------- 0 1.0 0.0 65 130
- 5.7 1 3 cbr 1000 ------- 0 1.0 0.0 65 130
+ 5.7 2 3 cbr 1000 ------- 0 2.0 0.1 65 131
- 5.7 2 3 cbr 1000 ------- 0 2.0 0.1 65 131
r 5.708248 3 0 cbr 1000 ------- 0 1.0 0.0 65 130
r 5.71646 3 0 cbr 1000 ------- 0 2.0 0.1 65 131
h 5.78 1 3 cbr 1000 ------- 0 1.0 0.0 66 132
h 5.78 2 3 cbr 1000 ------- 0 2.0 0.1 66 133
+ 5.78 1 3 cbr 1000 ------- 0 1.0 0.0 66 132
- 5.78 1 3 cbr 1000 ------- 0 1.0 0.0 66 132
+ 5.78 2 3 cbr 1000 ------- 0 2.0 0.1 66 133
- 5.78 2 3 cbr 1000 ------- 0 2.0 0.1 66 133
r 5.78838 3 0 cbr 1000 ------- 0 2.0 0.1 66 133
r 5.796592 3 0 cbr 1000 ------- 0 1.0 0.0 66 132
h 5.86 1 3 cbr 1000 ------- 0 1.0 0.0 67 134
h 5.86 2 3 cbr 1000 ------- 0 2.0 0.1 67 135
+ 5.86 1 3 cbr 1000 ------- 0 1.0 0.0 67 134
- 5.86 1 3 cbr 1000 ------- 0 1.0 0.0 67 134
+ 5.86 2 3 cbr 1000 ------- 0 2.0 0.1 67 135
- 5.86 2 3 cbr 1000 ------- 0 2.0 0.1 67 135
r 5.869916 3 0 cbr 1000 ------- 0 2.0 0.1 67 135
r 5.878128 3 0 cbr 1000 ------- 0 1.0 0.0 67 134
h 5.94 1 3 cbr 1000 ------- 0 1.0 0.0 68 136
h 5.94 2 3 cbr 1000 ------- 0 2.0 0.1 68 137
+ 5.94 1 3 cbr 1000 ------- 0 1.0 0.0 68 136
- 5.94 1 3 cbr 1000 ------- 0 1.0 0.0 68 136
+ 5.94 2 3 cbr 1000 ------- 0 2.0 0.1 68 137
- 5.94 2 3 cbr 1000 ------- 0 2.0 0.1 68 137
r 5.948248 3 0 cbr 1000 ------- 0 1.0 0.0 68 136
r 5.95646 3 0 cbr 1000 ------- 0 2.0 0.1 68 137
h 6.02 1 3 cbr 1000 ------- 0 1.0 0.0 69 138
h 6.02 2 3 cbr 1000 ------- 0 2.0 0.1 69 139
+ 6.02 1 3 cbr 1000 ------- 0 1.0 0.0 69 138
- 6.02 1 3 cbr 1000 ------- 0 1.0 0.0 69 138
+ 6.02 2 3 cbr 1000 ------- 0 2.0 0.1 69 139
- 6.02 2 3 cbr 1000 ------- 0 2.0 0.1 69 139
r 6.030048 3 0 cbr 1000 ------- 0 2.0 0.1 69 139
r 6.03826 3 0 cbr 1000 ------- 0 1.0 0.0 69 138
h 6.1 1 3 cbr 1000 ------- 0 1.0 0.0 70 140
h 6.1 2 3 cbr 1000 ------- 0 2.0 0.1 70 141
+ 6.1 1 3 cbr 1000 ------- 0 1.0 0.0 70 140
- 6.1 1 3 cbr 1000 ------- 0 1.0 0.0 70 140
+ 6.1 2 3 cbr 1000 ------- 0 2.0 0.1 70 141
- 6.1 2 3 cbr 1000 ------- 0 2.0 0.1 70 141
r 6.108248 3 0 cbr 1000 ------- 0 1.0 0.0 70 140
r 6.11646 3 0 cbr 1000 ------- 0 2.0 0.1 70 141
h 6.18 1 3 cbr 1000 ------- 0 1.0 0.0 71 142
h 6.18 2 3 cbr 1000 ------- 0 2.0 0.1 71 143
+ 6.18 1 3 cbr 1000 ------- 0 1.0 0.0 71 142
- 6.18 1 3 cbr 1000 ------- 0 1.0 0.0 71 142
+ 6.18 2 3 cbr 1000 ------- 0 2.0 0.1 71 143
- 6.18 2 3 cbr 1000 ------- 0 2.0 0.1 71 143
r 6.188248 3 0 cbr 1000 ------- 0 2.0 0.1 71 143
r 6.19646 3 0 cbr 1000 ------- 0 1.0 0.0 71 142
h 6.26 1 3 cbr 1000 ------- 0 1.0 0.0 72 144
h 6.26 2 3 cbr 1000 ------- 0 2.0 0.1 72 145
+ 6.26 1 3 cbr 1000 ------- 0 1.0 0.0 72 144
- 6.26 1 3 cbr 1000 ------- 0 1.0 0.0 72 144
+ 6.26 2 3 cbr 1000 ------- 0 2.0 0.1 72 145
- 6.26 2 3 cbr 1000 ------- 0 2.0 0.1 72 145
r 6.268892 3 0 cbr 1000 ------- 0 1.0 0.0 72 144
r 6.277104 3 0 cbr 1000 ------- 0 2.0 0.1 72 145
h 6.34 1 3 cbr 1000 ------- 0 1.0 0.0 73 146
h 6.34 2 3 cbr 1000 ------- 0 2.0 0.1 73 147
+ 6.34 1 3 cbr 1000 ------- 0 1.0 0.0 73 146
- 6.34 1 3 cbr 1000 ------- 0 1.0 0.0 73 146
+ 6.34 2 3 cbr 1000 ------- 0 2.0 0.1 73 147
- 6.34 2 3 cbr 1000 ------- 0 2.0 0.1 73 147
r 6.349404 3 0 cbr 1000 ------- 0 1.0 0.0 73 146
r 6.357616 3 0 cbr 1000 ------- 0 2.0 0.1 73 147
h 6.42 1 3 cbr 1000 ------- 0 1.0 0.0 74 148
h 6.42 2 3 cbr 1000 ------- 0 2.0 0.1 74 149
+ 6.42 1 3 cbr 1000 ------- 0 1.0 0.0 74 148
- 6.42 1 3 cbr 1000 ------- 0 1.0 0.0 74 148
+ 6.42 2 3 cbr 1000 ------- 0 2.0 0.1 74 149
- 6.42 2 3 cbr 1000 ------- 0 2.0 0.1 74 149
r 6.428248 3 0 cbr 1000 ------- 0 1.0 0.0 74 148
r 6.43646 3 0 cbr 1000 ------- 0 2.0 0.1 74 149
h 6.5 1 3 cbr 1000 ------- 0 1.0 0.0 75 150
h 6.5 2 3 cbr 1000 ------- 0 2.0 0.1 75 151
+ 6.5 1 3 cbr 1000 ------- 0 1.0 0.0 75 150
- 6.5 1 3 cbr 1000 ------- 0 1.0 0.0 75 150
+ 6.5 2 3 cbr 1000 ------- 0 2.0 0.1 75 151
- 6.5 2 3 cbr 1000 ------- 0 2.0 0.1 75 151
r 6.510048 3 0 cbr 1000 ------- 0 1.0 0.0 75 150
r 6.51826 3 0 cbr 1000 ------- 0 2.0 0.1 75 151
h 6.58 1 3 cbr 1000 ------- 0 1.0 0.0 76 152
h 6.58 2 3 cbr 1000 ------- 0 2.0 0.1 76 153
+ 6.58 1 3 cbr 1000 ------- 0 1.0 0.0 76 152
- 6.58 1 3 cbr 1000 ------- 0 1.0 0.0 76 152
+ 6.58 2 3 cbr 1000 ------- 0 2.0 0.1 76 153
- 6.58 2 3 cbr 1000 ------- 0 2.0 0.1 76 153
r 6.5953 3 0 cbr 1000 ------- 0 2.0 0.1 76 153
r 6.603512 3 0 cbr 1000 ------- 0 1.0 0.0 76 152
h 6.66 1 3 cbr 1000 ------- 0 1.0 0.0 77 154
h 6.66 2 3 cbr 1000 ------- 0 2.0 0.1 77 155
+ 6.66 1 3 cbr 1000 ------- 0 1.0 0.0 77 154
- 6.66 1 3 cbr 1000 ------- 0 1.0 0.0 77 154
+ 6.66 2 3 cbr 1000 ------- 0 2.0 0.1 77 155
- 6.66 2 3 cbr 1000 ------- 0 2.0 0.1 77 155
r 6.668892 3 0 cbr 1000 ------- 0 1.0 0.0 77 154
r 6.677104 3 0 cbr 1000 ------- 0 2.0 0.1 77 155
h 6.74 1 3 cbr 1000 ------- 0 1.0 0.0 78 156
h 6.74 2 3 cbr 1000 ------- 0 2.0 0.1 78 157
+ 6.74 1 3 cbr 1000 ------- 0 1.0 0.0 78 156
- 6.74 1 3 cbr 1000 ------- 0 1.0 0.0 78 156
+ 6.74 2 3 cbr 1000 ------- 0 2.0 0.1 78 157
- 6.74 2 3 cbr 1000 ------- 0 2.0 0.1 78 157
r 6.748248 3 0 cbr 1000 ------- 0 1.0 0.0 78 156
r 6.75646 3 0 cbr 1000 ------- 0 2.0 0.1 78 157
h 6.82 1 3 cbr 1000 ------- 0 1.0 0.0 79 158
h 6.82 2 3 cbr 1000 ------- 0 2.0 0.1 79 159
+ 6.82 1 3 cbr 1000 ------- 0 1.0 0.0 79 158
- 6.82 1 3 cbr 1000 ------- 0 1.0 0.0 79 158
+ 6.82 2 3 cbr 1000 ------- 0 2.0 0.1 79 159
- 6.82 2 3 cbr 1000 ------- 0 2.0 0.1 79 159
r 6.834276 3 0 cbr 1000 ------- 0 2.0 0.1 79 159
r 6.842488 3 0 cbr 1000 ------- 0 1.0 0.0 79 158
h 6.9 1 3 cbr 1000 ------- 0 1.0 0.0 80 160
h 6.9 2 3 cbr 1000 ------- 0 2.0 0.1 80 161
+ 6.9 1 3 cbr 1000 ------- 0 1.0 0.0 80 160
- 6.9 1 3 cbr 1000 ------- 0 1.0 0.0 80 160
+ 6.9 2 3 cbr 1000 ------- 0 2.0 0.1 80 161
- 6.9 2 3 cbr 1000 ------- 0 2.0 0.1 80 161
r 6.908892 3 0 cbr 1000 ------- 0 2.0 0.1 80 161
r 6.917104 3 0 cbr 1000 ------- 0 1.0 0.0 80 160
h 6.98 1 3 cbr 1000 ------- 0 1.0 0.0 81 162
h 6.98 2 3 cbr 1000 ------- 0 2.0 0.1 81 163
+ 6.98 1 3 cbr 1000 ------- 0 1.0 0.0 81 162
- 6.98 1 3 cbr 1000 ------- 0 1.0 0.0 81 162
+ 6.98 2 3 cbr 1000 ------- 0 2.0 0.1 81 163
- 6.98 2 3 cbr 1000 ------- 0 2.0 0.1 81 163
r 6.988892 3 0 cbr 1000 ------- 0 2.0 0.1 81 163
r 6.997104 3 0 cbr 1000 ------- 0 1.0 0.0 81 162
h 7.06 1 3 cbr 1000 ------- 0 1.0 0.0 82 164
h 7.06 2 3 cbr 1000 ------- 0 2.0 0.1 82 165
+ 7.06 1 3 cbr 1000 ------- 0 1.0 0.0 82 164
- 7.06 1 3 cbr 1000 ------- 0 1.0 0.0 82 164
+ 7.06 2 3 cbr 1000 ------- 0 2.0 0.1 82 165
- 7.06 2 3 cbr 1000 ------- 0 2.0 0.1 82 165
r 7.069404 3 0 cbr 1000 ------- 0 2.0 0.1 82 165
r 7.077616 3 0 cbr 1000 ------- 0 1.0 0.0 82 164
h 7.14 1 3 cbr 1000 ------- 0 1.0 0.0 83 166
h 7.14 2 3 cbr 1000 ------- 0 2.0 0.1 83 167
+ 7.14 1 3 cbr 1000 ------- 0 1.0 0.0 83 166