h 0.5 1 4 cbr 1000 ------- 0 1.0 0.0 0 0
h 0.5 2 4 cbr 1000 ------- 0 2.0 0.1 0 1
h 0.5 3 4 cbr 1000 ------- 0 3.0 0.2 0 2
+ 0.5 1 4 cbr 1000 ------- 0 1.0 0.0 0 0
- 0.5 1 4 cbr 1000 ------- 0 1.0 0.0 0 0
+ 0.5 2 4 cbr 1000 ------- 0 2.0 0.1 0 1
- 0.5 2 4 cbr 1000 ------- 0 2.0 0.1 0 1
+ 0.5 3 4 cbr 1000 ------- 0 3.0 0.2 0 2
- 0.5 3 4 cbr 1000 ------- 0 3.0 0.2 0 2
r 0.508248 4 0 cbr 1000 ------- 0 2.0 0.1 0 1
r 0.516592 4 0 cbr 1000 ------- 0 3.0 0.2 0 2
r 0.524804 4 0 cbr 1000 ------- 0 1.0 0.0 0 0
h 0.58 1 4 cbr 1000 ------- 0 1.0 0.0 1 3
h 0.58 2 4 cbr 1000 ------- 0 2.0 0.1 1 4
h 0.58 3 4 cbr 1000 ------- 0 3.0 0.2 1 5
+ 0.58 1 4 cbr 1000 ------- 0 1.0 0.0 1 3
- 0.58 1 4 cbr 1000 ------- 0 1.0 0.0 1 3
+ 0.58 2 4 cbr 1000 ------- 0 2.0 0.1 1 4
- 0.58 2 4 cbr 1000 ------- 0 2.0 0.1 1 4
+ 0.58 3 4 cbr 1000 ------- 0 3.0 0.2 1 5
- 0.58 3 4 cbr 1000 ------- 0 3.0 0.2 1 5
r 0.588248 4 0 cbr 1000 ------- 0 3.0 0.2 1 5
r 0.597104 4 0 cbr 1000 ------- 0 2.0 0.1 1 4
r 0.605316 4 0 cbr 1000 ------- 0 1.0 0.0 1 3
h 0.66 1 4 cbr 1000 ------- 0 1.0 0.0 2 6
h 0.66 2 4 cbr 1000 ------- 0 2.0 0.1 2 7
h 0.66 3 4 cbr 1000 ------- 0 3.0 0.2 2 8
+ 0.66 1 4 cbr 1000 ------- 0 1.0 0.0 2 6
- 0.66 1 4 cbr 1000 ------- 0 1.0 0.0 2 6
+ 0.66 2 4 cbr 1000 ------- 0 2.0 0.1 2 7
- 0.66 2 4 cbr 1000 ------- 0 2.0 0.1 2 7
+ 0.66 3 4 cbr 1000 ------- 0 3.0 0.2 2 8
- 0.66 3 4 cbr 1000 ------- 0 3.0 0.2 2 8
r 0.668892 4 0 cbr 1000 ------- 0 3.0 0.2 2 8
r 0.677748 4 0 cbr 1000 ------- 0 1.0 0.0 2 6
r 0.68596 4 0 cbr 1000 ------- 0 2.0 0.1 2 7
h 0.74 1 4 cbr 1000 ------- 0 1.0 0.0 3 9
h 0.74 2 4 cbr 1000 ------- 0 2.0 0.1 3 10
h 0.74 3 4 cbr 1000 ------- 0 3.0 0.2 3 11
+ 0.74 1 4 cbr 1000 ------- 0 1.0 0.0 3 9
- 0.74 1 4 cbr 1000 ------- 0 1.0 0.0 3 9
+ 0.74 2 4 cbr 1000 ------- 0 2.0 0.1 3 10
- 0.74 2 4 cbr 1000 ------- 0 2.0 0.1 3 10
+ 0.74 3 4 cbr 1000 ------- 0 3.0 0.2 3 11
- 0.74 3 4 cbr 1000 ------- 0 3.0 0.2 3 11
r 0.74838 4 0 cbr 1000 ------- 0 2.0 0.1 3 10
r 0.757748 4 0 cbr 1000 ------- 0 1.0 0.0 3 9
r 0.76596 4 0 cbr 1000 ------- 0 3.0 0.2 3 11
h 0.82 1 4 cbr 1000 ------- 0 1.0 0.0 4 12
h 0.82 2 4 cbr 1000 ------- 0 2.0 0.1 4 13
h 0.82 3 4 cbr 1000 ------- 0 3.0 0.2 4 14
+ 0.82 1 4 cbr 1000 ------- 0 1.0 0.0 4 12
- 0.82 1 4 cbr 1000 ------- 0 1.0 0.0 4 12
+ 0.82 2 4 cbr 1000 ------- 0 2.0 0.1 4 13
- 0.82 2 4 cbr 1000 ------- 0 2.0 0.1 4 13
+ 0.82 3 4 cbr 1000 ------- 0 3.0 0.2 4 14
- 0.82 3 4 cbr 1000 ------- 0 3.0 0.2 4 14
r 0.828248 4 0 cbr 1000 ------- 0 3.0 0.2 4 14
r 0.837104 4 0 cbr 1000 ------- 0 1.0 0.0 4 12
r 0.845316 4 0 cbr 1000 ------- 0 2.0 0.1 4 13
h 0.9 1 4 cbr 1000 ------- 0 1.0 0.0 5 15
h 0.9 2 4 cbr 1000 ------- 0 2.0 0.1 5 16
h 0.9 3 4 cbr 1000 ------- 0 3.0 0.2 5 17
+ 0.9 1 4 cbr 1000 ------- 0 1.0 0.0 5 15
- 0.9 1 4 cbr 1000 ------- 0 1.0 0.0 5 15
+ 0.9 2 4 cbr 1000 ------- 0 2.0 0.1 5 16
- 0.9 2 4 cbr 1000 ------- 0 2.0 0.1 5 16
+ 0.9 3 4 cbr 1000 ------- 0 3.0 0.2 5 17
- 0.9 3 4 cbr 1000 ------- 0 3.0 0.2 5 17
r 0.908512 4 0 cbr 1000 ------- 0 1.0 0.0 5 15
r 0.91788 4 0 cbr 1000 ------- 0 2.0 0.1 5 16
r 0.926092 4 0 cbr 1000 ------- 0 3.0 0.2 5 17
h 0.98 1 4 cbr 1000 ------- 0 1.0 0.0 6 18
h 0.98 2 4 cbr 1000 ------- 0 2.0 0.1 6 19
h 0.98 3 4 cbr 1000 ------- 0 3.0 0.2 6 20
+ 0.98 1 4 cbr 1000 ------- 0 1.0 0.0 6 18
- 0.98 1 4 cbr 1000 ------- 0 1.0 0.0 6 18
+ 0.98 2 4 cbr 1000 ------- 0 2.0 0.1 6 19
- 0.98 2 4 cbr 1000 ------- 0 2.0 0.1 6 19
+ 0.98 3 4 cbr 1000 ------- 0 3.0 0.2 6 20
- 0.98 3 4 cbr 1000 ------- 0 3.0 0.2 6 20
r 0.98876 4 0 cbr 1000 ------- 0 3.0 0.2 6 20
r 0.997104 4 0 cbr 1000 ------- 0 2.0 0.1 6 19
r 1.005316 4 0 cbr 1000 ------- 0 1.0 0.0 6 18
h 1.06 1 4 cbr 1000 ------- 0 1.0 0.0 7 21
h 1.06 2 4 cbr 1000 ------- 0 2.0 0.1 7 22
h 1.06 3 4 cbr 1000 ------- 0 3.0 0.2 7 23
+ 1.06 1 4 cbr 1000 ------- 0 1.0 0.0 7 21
- 1.06 1 4 cbr 1000 ------- 0 1.0 0.0 7 21
+ 1.06 2 4 cbr 1000 ------- 0 2.0 0.1 7 22
- 1.06 2 4 cbr 1000 ------- 0 2.0 0.1 7 22
+ 1.06 3 4 cbr 1000 ------- 0 3.0 0.2 7 23
- 1.06 3 4 cbr 1000 ------- 0 3.0 0.2 7 23
r 1.068892 4 0 cbr 1000 ------- 0 3.0 0.2 7 23
r 1.077236 4 0 cbr 1000 ------- 0 2.0 0.1 7 22
r 1.085448 4 0 cbr 1000 ------- 0 1.0 0.0 7 21
h 1.14 1 4 cbr 1000 ------- 0 1.0 0.0 8 24
h 1.14 2 4 cbr 1000 ------- 0 2.0 0.1 8 25
h 1.14 3 4 cbr 1000 ------- 0 3.0 0.2 8 26
+ 1.14 1 4 cbr 1000 ------- 0 1.0 0.0 8 24
- 1.14 1 4 cbr 1000 ------- 0 1.0 0.0 8 24
+ 1.14 2 4 cbr 1000 ------- 0 2.0 0.1 8 25
- 1.14 2 4 cbr 1000 ------- 0 2.0 0.1 8 25
+ 1.14 3 4 cbr 1000 ------- 0 3.0 0.2 8 26
- 1.14 3 4 cbr 1000 ------- 0 3.0 0.2 8 26
r 1.148248 4 0 cbr 1000 ------- 0 3.0 0.2 8 26
r 1.16082 4 0 cbr 1000 ------- 0 2.0 0.1 8 25
r 1.169032 4 0 cbr 1000 ------- 0 1.0 0.0 8 24
h 1.22 1 4 cbr 1000 ------- 0 1.0 0.0 9 27
h 1.22 2 4 cbr 1000 ------- 0 2.0 0.1 9 28
h 1.22 3 4 cbr 1000 ------- 0 3.0 0.2 9 29
+ 1.22 1 4 cbr 1000 ------- 0 1.0 0.0 9 27
- 1.22 1 4 cbr 1000 ------- 0 1.0 0.0 9 27
+ 1.22 2 4 cbr 1000 ------- 0 2.0 0.1 9 28
- 1.22 2 4 cbr 1000 ------- 0 2.0 0.1 9 28
+ 1.22 3 4 cbr 1000 ------- 0 3.0 0.2 9 29
- 1.22 3 4 cbr 1000 ------- 0 3.0 0.2 9 29
r 1.22838 4 0 cbr 1000 ------- 0 1.0 0.0 9 27
r 1.237748 4 0 cbr 1000 ------- 0 3.0 0.2 9 29
r 1.24596 4 0 cbr 1000 ------- 0 2.0 0.1 9 28
h 1.3 1 4 cbr 1000 ------- 0 1.0 0.0 10 30
h 1.3 2 4 cbr 1000 ------- 0 2.0 0.1 10 31
h 1.3 3 4 cbr 1000 ------- 0 3.0 0.2 10 32
+ 1.3 1 4 cbr 1000 ------- 0 1.0 0.0 10 30
- 1.3 1 4 cbr 1000 ------- 0 1.0 0.0 10 30
+ 1.3 2 4 cbr 1000 ------- 0 2.0 0.1 10 31
- 1.3 2 4 cbr 1000 ------- 0 2.0 0.1 10 31
+ 1.3 3 4 cbr 1000 ------- 0 3.0 0.2 10 32
- 1.3 3 4 cbr 1000 ------- 0 3.0 0.2 10 32
r 1.30838 4 0 cbr 1000 ------- 0 2.0 0.1 10 31
r 1.31826 4 0 cbr 1000 ------- 0 1.0 0.0 10 30
r 1.326472 4 0 cbr 1000 ------- 0 3.0 0.2 10 32
h 1.38 1 4 cbr 1000 ------- 0 1.0 0.0 11 33
h 1.38 2 4 cbr 1000 ------- 0 2.0 0.1 11 34
h 1.38 3 4 cbr 1000 ------- 0 3.0 0.2 11 35
+ 1.38 1 4 cbr 1000 ------- 0 1.0 0.0 11 33
- 1.38 1 4 cbr 1000 ------- 0 1.0 0.0 11 33
+ 1.38 2 4 cbr 1000 ------- 0 2.0 0.1 11 34
- 1.38 2 4 cbr 1000 ------- 0 2.0 0.1 11 34
+ 1.38 3 4 cbr 1000 ------- 0 3.0 0.2 11 35
- 1.38 3 4 cbr 1000 ------- 0 3.0 0.2 11 35
r 1.39056 4 0 cbr 1000 ------- 0 2.0 0.1 11 34
r 1.401976 4 0 cbr 1000 ------- 0 3.0 0.2 11 35
r 1.410188 4 0 cbr 1000 ------- 0 1.0 0.0 11 33
h 1.46 1 4 cbr 1000 ------- 0 1.0 0.0 12 36
h 1.46 2 4 cbr 1000 ------- 0 2.0 0.1 12 37
h 1.46 3 4 cbr 1000 ------- 0 3.0 0.2 12 38
+ 1.46 1 4 cbr 1000 ------- 0 1.0 0.0 12 36
- 1.46 1 4 cbr 1000 ------- 0 1.0 0.0 12 36
+ 1.46 2 4 cbr 1000 ------- 0 2.0 0.1 12 37
- 1.46 2 4 cbr 1000 ------- 0 2.0 0.1 12 37
+ 1.46 3 4 cbr 1000 ------- 0 3.0 0.2 12 38
- 1.46 3 4 cbr 1000 ------- 0 3.0 0.2 12 38
r 1.468892 4 0 cbr 1000 ------- 0 2.0 0.1 12 37
r 1.47826 4 0 cbr 1000 ------- 0 1.0 0.0 12 36
r 1.486472 4 0 cbr 1000 ------- 0 3.0 0.2 12 38
h 1.54 1 4 cbr 1000 ------- 0 1.0 0.0 13 39
h 1.54 2 4 cbr 1000 ------- 0 2.0 0.1 13 40
h 1.54 3 4 cbr 1000 ------- 0 3.0 0.2 13 41
+ 1.54 1 4 cbr 1000 ------- 0 1.0 0.0 13 39
- 1.54 1 4 cbr 1000 ------- 0 1.0 0.0 13 39
+ 1.54 2 4 cbr 1000 ------- 0 2.0 0.1 13 40
- 1.54 2 4 cbr 1000 ------- 0 2.0 0.1 13 40
+ 1.54 3 4 cbr 1000 ------- 0 3.0 0.2 13 41
- 1.54 3 4 cbr 1000 ------- 0 3.0 0.2 13 41
r 1.548248 4 0 cbr 1000 ------- 0 2.0 0.1 13 40
r 1.557104 4 0 cbr 1000 ------- 0 3.0 0.2 13 41
r 1.565316 4 0 cbr 1000 ------- 0 1.0 0.0 13 39
h 1.62 1 4 cbr 1000 ------- 0 1.0 0.0 14 42
h 1.62 2 4 cbr 1000 ------- 0 2.0 0.1 14 43
h 1.62 3 4 cbr 1000 ------- 0 3.0 0.2 14 44
+ 1.62 1 4 cbr 1000 ------- 0 1.0 0.0 14 42
- 1.62 1 4 cbr 1000 ------- 0 1.0 0.0 14 42
+ 1.62 2 4 cbr 1000 ------- 0 2.0 0.1 14 43
- 1.62 2 4 cbr 1000 ------- 0 2.0 0.1 14 43
+ 1.62 3 4 cbr 1000 ------- 0 3.0 0.2 14 44
- 1.62 3 4 cbr 1000 ------- 0 3.0 0.2 14 44
r 1.628892 4 0 cbr 1000 ------- 0 1.0 0.0 14 42
r 1.639796 4 0 cbr 1000 ------- 0 3.0 0.2 14 44
r 1.648008 4 0 cbr 1000 ------- 0 2.0 0.1 14 43
h 1.7 1 4 cbr 1000 ------- 0 1.0 0.0 15 45
h 1.7 2 4 cbr 1000 ------- 0 2.0 0.1 15 46
h 1.7 3 4 cbr 1000 ------- 0 3.0 0.2 15 47
+ 1.7 1 4 cbr 1000 ------- 0 1.0 0.0 15 45
- 1.7 1 4 cbr 1000 ------- 0 1.0 0.0 15 45
+ 1.7 2 4 cbr 1000 ------- 0 2.0 0.1 15 46
- 1.7 2 4 cbr 1000 ------- 0 2.0 0.1 15 46
+ 1.7 3 4 cbr 1000 ------- 0 3.0 0.2 15 47
- 1.7 3 4 cbr 1000 ------- 0 3.0 0.2 15 47
r 1.70838 4 0 cbr 1000 ------- 0 2.0 0.1 15 46
r 1.71826 4 0 cbr 1000 ------- 0 3.0 0.2 15 47
r 1.726472 4 0 cbr 1000 ------- 0 1.0 0.0 15 45
h 1.78 1 4 cbr 1000 ------- 0 1.0 0.0 16 48
h 1.78 2 4 cbr 1000 ------- 0 2.0 0.1 16 49
h 1.78 3 4 cbr 1000 ------- 0 3.0 0.2 16 50
+ 1.78 1 4 cbr 1000 ------- 0 1.0 0.0 16 48
- 1.78 1 4 cbr 1000 ------- 0 1.0 0.0 16 48
+ 1.78 2 4 cbr 1000 ------- 0 2.0 0.1 16 49
- 1.78 2 4 cbr 1000 ------- 0 2.0 0.1 16 49
+ 1.78 3 4 cbr 1000 ------- 0 3.0 0.2 16 50
- 1.78 3 4 cbr 1000 ------- 0 3.0 0.2 16 50
r 1.788248 4 0 cbr 1000 ------- 0 3.0 0.2 16 50
r 1.797104 4 0 cbr 1000 ------- 0 1.0 0.0 16 48
r 1.805316 4 0 cbr 1000 ------- 0 2.0 0.1 16 49
h 1.86 1 4 cbr 1000 ------- 0 1.0 0.0 17 51
h 1.86 2 4 cbr 1000 ------- 0 2.0 0.1 17 52
h 1.86 3 4 cbr 1000 ------- 0 3.0 0.2 17 53
+ 1.86 1 4 cbr 1000 ------- 0 1.0 0.0 17 51
- 1.86 1 4 cbr 1000 ------- 0 1.0 0.0 17 51
+ 1.86 2 4 cbr 1000 ------- 0 2.0 0.1 17 52
- 1.86 2 4 cbr 1000 ------- 0 2.0 0.1 17 52
+ 1.86 3 4 cbr 1000 ------- 0 3.0 0.2 17 53
- 1.86 3 4 cbr 1000 ------- 0 3.0 0.2 17 53
r 1.86838 4 0 cbr 1000 ------- 0 3.0 0.2 17 53
r 1.877236 4 0 cbr 1000 ------- 0 2.0 0.1 17 52
r 1.885448 4 0 cbr 1000 ------- 0 1.0 0.0 17 51
h 1.94 1 4 cbr 1000 ------- 0 1.0 0.0 18 54
h 1.94 2 4 cbr 1000 ------- 0 2.0 0.1 18 55
h 1.94 3 4 cbr 1000 ------- 0 3.0 0.2 18 56
+ 1.94 1 4 cbr 1000 ------- 0 1.0 0.0 18 54
- 1.94 1 4 cbr 1000 ------- 0 1.0 0.0 18 54
+ 1.94 2 4 cbr 1000 ------- 0 2.0 0.1 18 55
- 1.94 2 4 cbr 1000 ------- 0 2.0 0.1 18 55
+ 1.94 3 4 cbr 1000 ------- 0 3.0 0.2 18 56
- 1.94 3 4 cbr 1000 ------- 0 3.0 0.2 18 56
r 1.94838 4 0 cbr 1000 ------- 0 3.0 0.2 18 56
r 1.957236 4 0 cbr 1000 ------- 0 2.0 0.1 18 55
r 1.965448 4 0 cbr 1000 ------- 0 1.0 0.0 18 54
h 2.02 1 4 cbr 1000 ------- 0 1.0 0.0 19 57
h 2.02 2 4 cbr 1000 ------- 0 2.0 0.1 19 58
h 2.02 3 4 cbr 1000 ------- 0 3.0 0.2 19 59
+ 2.02 1 4 cbr 1000 ------- 0 1.0 0.0 19 57
- 2.02 1 4 cbr 1000 ------- 0 1.0 0.0 19 57
+ 2.02 2 4 cbr 1000 ------- 0 2.0 0.1 19 58
- 2.02 2 4 cbr 1000 ------- 0 2.0 0.1 19 58
+ 2.02 3 4 cbr 1000 ------- 0 3.0 0.2 19 59
- 2.02 3 4 cbr 1000 ------- 0 3.0 0.2 19 59
r 2.02838 4 0 cbr 1000 ------- 0 3.0 0.2 19 59
r 2.037748 4 0 cbr 1000 ------- 0 2.0 0.1 19 58
r 2.04596 4 0 cbr 1000 ------- 0 1.0 0.0 19 57
h 2.1 1 4 cbr 1000 ------- 0 1.0 0.0 20 60
h 2.1 2 4 cbr 1000 ------- 0 2.0 0.1 20 61
h 2.1 3 4 cbr 1000 ------- 0 3.0 0.2 20 62
+ 2.1 1 4 cbr 1000 ------- 0 1.0 0.0 20 60
- 2.1 1 4 cbr 1000 ------- 0 1.0 0.0 20 60
+ 2.1 2 4 cbr 1000 ------- 0 2.0 0.1 20 61
- 2.1 2 4 cbr 1000 ------- 0 2.0 0.1 20 61
+ 2.1 3 4 cbr 1000 ------- 0 3.0 0.2 20 62
- 2.1 3 4 cbr 1000 ------- 0 3.0 0.2 20 62
r 2.10838 4 0 cbr 1000 ------- 0 2.0 0.1 20 61
r 2.117748 4 0 cbr 1000 ------- 0 3.0 0.2 20 62
r 2.12596 4 0 cbr 1000 ------- 0 1.0 0.0 20 60
h 2.18 1 4 cbr 1000 ------- 0 1.0 0.0 21 63
h 2.18 2 4 cbr 1000 ------- 0 2.0 0.1 21 64
h 2.18 3 4 cbr 1000 ------- 0 3.0 0.2 21 65
+ 2.18 1 4 cbr 1000 ------- 0 1.0 0.0 21 63
- 2.18 1 4 cbr 1000 ------- 0 1.0 0.0 21 63
+ 2.18 2 4 cbr 1000 ------- 0 2.0 0.1 21 64
- 2.18 2 4 cbr 1000 ------- 0 2.0 0.1 21 64
+ 2.18 3 4 cbr 1000 ------- 0 3.0 0.2 21 65
- 2.18 3 4 cbr 1000 ------- 0 3.0 0.2 21 65
r 2.188248 4 0 cbr 1000 ------- 0 3.0 0.2 21 65
r 2.197616 4 0 cbr 1000 ------- 0 1.0 0.0 21 63
r 2.205828 4 0 cbr 1000 ------- 0 2.0 0.1 21 64
h 2.26 1 4 cbr 1000 ------- 0 1.0 0.0 22 66
h 2.26 2 4 cbr 1000 ------- 0 2.0 0.1 22 67
h 2.26 3 4 cbr 1000 ------- 0 3.0 0.2 22 68
+ 2.26 1 4 cbr 1000 ------- 0 1.0 0.0 22 66
- 2.26 1 4 cbr 1000 ------- 0 1.0 0.0 22 66
+ 2.26 2 4 cbr 1000 ------- 0 2.0 0.1 22 67
- 2.26 2 4 cbr 1000 ------- 0 2.0 0.1 22 67
+ 2.26 3 4 cbr 1000 ------- 0 3.0 0.2 22 68
- 2.26 3 4 cbr 1000 ------- 0 3.0 0.2 22 68
r 2.26838 4 0 cbr 1000 ------- 0 1.0 0.0 22 66
r 2.277748 4 0 cbr 1000 ------- 0 2.0 0.1 22 67
r 2.28596 4 0 cbr 1000 ------- 0 3.0 0.2 22 68
h 2.34 1 4 cbr 1000 ------- 0 1.0 0.0 23 69
h 2.34 2 4 cbr 1000 ------- 0 2.0 0.1 23 70
h 2.34 3 4 cbr 1000 ------- 0 3.0 0.2 23 71
+ 2.34 1 4 cbr 1000 ------- 0 1.0 0.0 23 69
- 2.34 1 4 cbr 1000 ------- 0 1.0 0.0 23 69
+ 2.34 2 4 cbr 1000 ------- 0 2.0 0.1 23 70
- 2.34 2 4 cbr 1000 ------- 0 2.0 0.1 23 70
+ 2.34 3 4 cbr 1000 ------- 0 3.0 0.2 23 71
- 2.34 3 4 cbr 1000 ------- 0 3.0 0.2 23 71
r 2.348248 4 0 cbr 1000 ------- 0 2.0 0.1 23 70
r 2.356592 4 0 cbr 1000 ------- 0 3.0 0.2 23 71
r 2.364804 4 0 cbr 1000 ------- 0 1.0 0.0 23 69
h 2.42 1 4 cbr 1000 ------- 0 1.0 0.0 24 72
h 2.42 2 4 cbr 1000 ------- 0 2.0 0.1 24 73
h 2.42 3 4 cbr 1000 ------- 0 3.0 0.2 24 74
+ 2.42 1 4 cbr 1000 ------- 0 1.0 0.0 24 72
- 2.42 1 4 cbr 1000 ------- 0 1.0 0.0 24 72
+ 2.42 2 4 cbr 1000 ------- 0 2.0 0.1 24 73
- 2.42 2 4 cbr 1000 ------- 0 2.0 0.1 24 73
+ 2.42 3 4 cbr 1000 ------- 0 3.0 0.2 24 74
- 2.42 3 4 cbr 1000 ------- 0 3.0 0.2 24 74
r 2.428892 4 0 cbr 1000 ------- 0 3.0 0.2 24 74
r 2.437236 4 0 cbr 1000 ------- 0 2.0 0.1 24 73
r 2.445448 4 0 cbr 1000 ------- 0 1.0 0.0 24 72
h 2.5 1 4 cbr 1000 ------- 0 1.0 0.0 25 75
h 2.5 2 4 cbr 1000 ------- 0 2.0 0.1 25 76
h 2.5 3 4 cbr 1000 ------- 0 3.0 0.2 25 77
+ 2.5 1 4 cbr 1000 ------- 0 1.0 0.0 25 75
- 2.5 1 4 cbr 1000 ------- 0 1.0 0.0 25 75
+ 2.5 2 4 cbr 1000 ------- 0 2.0 0.1 25 76
- 2.5 2 4 cbr 1000 ------- 0 2.0 0.1 25 76
+ 2.5 3 4 cbr 1000 ------- 0 3.0 0.2 25 77
- 2.5 3 4 cbr 1000 ------- 0 3.0 0.2 25 77
r 2.508248 4 0 cbr 1000 ------- 0 3.0 0.2 25 77
r 2.517616 4 0 cbr 1000 ------- 0 1.0 0.0 25 75
r 2.525828 4 0 cbr 1000 ------- 0 2.0 0.1 25 76
h 2.58 1 4 cbr 1000 ------- 0 1.0 0.0 26 78
h 2.58 2 4 cbr 1000 ------- 0 2.0 0.1 26 79
h 2.58 3 4 cbr 1000 ------- 0 3.0 0.2 26 80
+ 2.58 1 4 cbr 1000 ------- 0 1.0 0.0 26 78
- 2.58 1 4 cbr 1000 ------- 0 1.0 0.0 26 78
+ 2.58 2 4 cbr 1000 ------- 0 2.0 0.1 26 79
- 2.58 2 4 cbr 1000 ------- 0 2.0 0.1 26 79
+ 2.58 3 4 cbr 1000 ------- 0 3.0 0.2 26 80
- 2.58 3 4 cbr 1000 ------- 0 3.0 0.2 26 80
r 2.589024 4 0 cbr 1000 ------- 0 2.0 0.1 26 79
r 2.598392 4 0 cbr 1000 ------- 0 1.0 0.0 26 78
r 2.606604 4 0 cbr 1000 ------- 0 3.0 0.2 26 80
h 2.66 1 4 cbr 1000 ------- 0 1.0 0.0 27 81
h 2.66 2 4 cbr 1000 ------- 0 2.0 0.1 27 82
h 2.66 3 4 cbr 1000 ------- 0 3.0 0.2 27 83
+ 2.66 1 4 cbr 1000 ------- 0 1.0 0.0 27 81
- 2.66 1 4 cbr 1000 ------- 0 1.0 0.0 27 81
+ 2.66 2 4 cbr 1000 ------- 0 2.0 0.1 27 82
- 2.66 2 4 cbr 1000 ------- 0 2.0 0.1 27 82
+ 2.66 3 4 cbr 1000 ------- 0 3.0 0.2 27 83
- 2.66 3 4 cbr 1000 ------- 0 3.0 0.2 27 83
r 2.669404 4 0 cbr 1000 ------- 0 2.0 0.1 27 82
r 2.678772 4 0 cbr 1000 ------- 0 1.0 0.0 27 81
r 2.686984 4 0 cbr 1000 ------- 0 3.0 0.2 27 83
h 2.74 1 4 cbr 1000 ------- 0 1.0 0.0 28 84
h 2.74 2 4 cbr 1000 ------- 0 2.0 0.1 28 85
h 2.74 3 4 cbr 1000 ------- 0 3.0 0.2 28 86
+ 2.74 1 4 cbr 1000 ------- 0 1.0 0.0 28 84
- 2.74 1 4 cbr 1000 ------- 0 1.0 0.0 28 84
+ 2.74 2 4 cbr 1000 ------- 0 2.0 0.1 28 85
- 2.74 2 4 cbr 1000 ------- 0 2.0 0.1 28 85
+ 2.74 3 4 cbr 1000 ------- 0 3.0 0.2 28 86
- 2.74 3 4 cbr 1000 ------- 0 3.0 0.2 28 86
r 2.748248 4 0 cbr 1000 ------- 0 1.0 0.0 28 84
r 2.756592 4 0 cbr 1000 ------- 0 2.0 0.1 28 85
r 2.764804 4 0 cbr 1000 ------- 0 3.0 0.2 28 86
h 2.82 1 4 cbr 1000 ------- 0 1.0 0.0 29 87
h 2.82 2 4 cbr 1000 ------- 0 2.0 0.1 29 88
h 2.82 3 4 cbr 1000 ------- 0 3.0 0.2 29 89
+ 2.82 1 4 cbr 1000 ------- 0 1.0 0.0 29 87
- 2.82 1 4 cbr 1000 ------- 0 1.0 0.0 29 87
+ 2.82 2 4 cbr 1000 ------- 0 2.0 0.1 29 88
- 2.82 2 4 cbr 1000 ------- 0 2.0 0.1 29 88
+ 2.82 3 4 cbr 1000 ------- 0 3.0 0.2 29 89
- 2.82 3 4 cbr 1000 ------- 0 3.0 0.2 29 89
r 2.828248 4 0 cbr 1000 ------- 0 1.0 0.0 29 87
r 2.836592 4 0 cbr 1000 ------- 0 2.0 0.1 29 88
r 2.844804 4 0 cbr 1000 ------- 0 3.0 0.2 29 89
h 2.9 1 4 cbr 1000 ------- 0 1.0 0.0 30 90
h 2.9 2 4 cbr 1000 ------- 0 2.0 0.1 30 91
h 2.9 3 4 cbr 1000 ------- 0 3.0 0.2 30 92
+ 2.9 1 4 cbr 1000 ------- 0 1.0 0.0 30 90
- 2.9 1 4 cbr 1000 ------- 0 1.0 0.0 30 90
+ 2.9 2 4 cbr 1000 ------- 0 2.0 0.1 30 91
- 2.9 2 4 cbr 1000 ------- 0 2.0 0.1 30 91
+ 2.9 3 4 cbr 1000 ------- 0 3.0 0.2 30 92
- 2.9 3 4 cbr 1000 ------- 0 3.0 0.2 30 92
r 2.908248 4 0 cbr 1000 ------- 0 2.0 0.1 30 91
r 2.917748 4 0 cbr 1000 ------- 0 3.0 0.2 30 92
r 2.92596 4 0 cbr 1000 ------- 0 1.0 0.0 30 90
h 2.98 1 4 cbr 1000 ------- 0 1.0 0.0 31 93
h 2.98 2 4 cbr 1000 ------- 0 2.0 0.1 31 94
h 2.98 3 4 cbr 1000 ------- 0 3.0 0.2 31 95
+ 2.98 1 4 cbr 1000 ------- 0 1.0 0.0 31 93
- 2.98 1 4 cbr 1000 ------- 0 1.0 0.0 31 93
+ 2.98 2 4 cbr 1000 ------- 0 2.0 0.1 31 94
- 2.98 2 4 cbr 1000 ------- 0 2.0 0.1 31 94
+ 2.98 3 4 cbr 1000 ------- 0 3.0 0.2 31 95
- 2.98 3 4 cbr 1000 ------- 0 3.0 0.2 31 95
r 2.98838 4 0 cbr 1000 ------- 0 1.0 0.0 31 93
r 2.996724 4 0 cbr 1000 ------- 0 3.0 0.2 31 95
r 3.004936 4 0 cbr 1000 ------- 0 2.0 0.1 31 94
h 3.06 1 4 cbr 1000 ------- 0 1.0 0.0 32 96
h 3.06 2 4 cbr 1000 ------- 0 2.0 0.1 32 97
h 3.06 3 4 cbr 1000 ------- 0 3.0 0.2 32 98
+ 3.06 1 4 cbr 1000 ------- 0 1.0 0.0 32 96
- 3.06 1 4 cbr 1000 ------- 0 1.0 0.0 32 96
+ 3.06 2 4 cbr 1000 ------- 0 2.0 0.1 32 97
- 3.06 2 4 cbr 1000 ------- 0 2.0 0.1 32 97
+ 3.06 3 4 cbr 1000 ------- 0 3.0 0.2 32 98
- 3.06 3 4 cbr 1000 ------- 0 3.0 0.2 32 98
r 3.069404 4 0 cbr 1000 ------- 0 2.0 0.1 32 97
r 3.079796 4 0 cbr 1000 ------- 0 3.0 0.2 32 98
r 3.088008 4 0 cbr 1000 ------- 0 1.0 0.0 32 96
h 3.14 1 4 cbr 1000 ------- 0 1.0 0.0 33 99
h 3.14 2 4 cbr 1000 ------- 0 2.0 0.1 33 100
h 3.14 3 4 cbr 1000 ------- 0 3.0 0.2 33 101
+ 3.14 1 4 cbr 1000 ------- 0 1.0 0.0 33 99
- 3.14 1 4 cbr 1000 ------- 0 1.0 0.0 33 99
+ 3.14 2 4 cbr 1000 ------- 0 2.0 0.1 33 100
- 3.14 2 4 cbr 1000 ------- 0 2.0 0.1 33 100
+ 3.14 3 4 cbr 1000 ------- 0 3.0 0.2 33 101
- 3.14 3 4 cbr 1000 ------- 0 3.0 0.2 33 101
r 3.148892 4 0 cbr 1000 ------- 0 1.0 0.0 33 99
r 3.157236 4 0 cbr 1000 ------- 0 2.0 0.1 33 100
r 3.165448 4 0 cbr 1000 ------- 0 3.0 0.2 33 101
h 3.22 1 4 cbr 1000 ------- 0 1.0 0.0 34 102
h 3.22 2 4 cbr 1000 ------- 0 2.0 0.1 34 103
h 3.22 3 4 cbr 1000 ------- 0 3.0 0.2 34 104
+ 3.22 1 4 cbr 1000 ------- 0 1.0 0.0 34 102
- 3.22 1 4 cbr 1000 ------- 0 1.0 0.0 34 102
+ 3.22 2 4 cbr 1000 ------- 0 2.0 0.1 34 103
- 3.22 2 4 cbr 1000 ------- 0 2.0 0.1 34 103
+ 3.22 3 4 cbr 1000 ------- 0 3.0 0.2 34 104
- 3.22 3 4 cbr 1000 ------- 0 3.0 0.2 34 104
r 3.228892 4 0 cbr 1000 ------- 0 2.0 0.1 34 103
r 3.23826 4 0 cbr 1000 ------- 0 3.0 0.2 34 104
r 3.246472 4 0 cbr 1000 ------- 0 1.0 0.0 34 102
h 3.3 1 4 cbr 1000 ------- 0 1.0 0.0 35 105
h 3.3 2 4 cbr 1000 ------- 0 2.0 0.1 35 106
h 3.3 3 4 cbr 1000 ------- 0 3.0 0.2 35 107
+ 3.3 1 4 cbr 1000 ------- 0 1.0 0.0 35 105
- 3.3 1 4 cbr 1000 ------- 0 1.0 0.0 35 105
+ 3.3 2 4 cbr 1000 ------- 0 2.0 0.1 35 106
- 3.3 2 4 cbr 1000 ------- 0 2.0 0.1 35 106
+ 3.3 3 4 cbr 1000 ------- 0 3.0 0.2 35 107
- 3.3 3 4 cbr 1000 ------- 0 3.0 0.2 35 107
r 3.308248 4 0 cbr 1000 ------- 0 2.0 0.1 35 106
r 3.316592 4 0 cbr 1000 ------- 0 1.0 0.0 35 105
r 3.324804 4 0 cbr 1000 ------- 0 3.0 0.2 35 107
h 3.38 1 4 cbr 1000 ------- 0 1.0 0.0 36 108
h 3.38 2 4 cbr 1000 ------- 0 2.0 0.1 36 109
h 3.38 3 4 cbr 1000 ------- 0 3.0 0.2 36 110
+ 3.38 1 4 cbr 1000 ------- 0 1.0 0.0 36 108
- 3.38 1 4 cbr 1000 ------- 0 1.0 0.0 36 108
+ 3.38 2 4 cbr 1000 ------- 0 2.0 0.1 36 109
- 3.38 2 4 cbr 1000 ------- 0 2.0 0.1 36 109
+ 3.38 3 4 cbr 1000 ------- 0 3.0 0.2 36 110
- 3.38 3 4 cbr 1000 ------- 0 3.0 0.2 36 110
r 3.38876 4 0 cbr 1000 ------- 0 3.0 0.2 36 110
r 3.39864 4 0 cbr 1000 ------- 0 1.0 0.0 36 108
r 3.406852 4 0 cbr 1000 ------- 0 2.0 0.1 36 109
h 3.46 1 4 cbr 1000 ------- 0 1.0 0.0 37 111
h 3.46 2 4 cbr 1000 ------- 0 2.0 0.1 37 112
h 3.46 3 4 cbr 1000 ------- 0 3.0 0.2 37 113
+ 3.46 1 4 cbr 1000 ------- 0 1.0 0.0 37 111
- 3.46 1 4 cbr 1000 ------- 0 1.0 0.0 37 111
+ 3.46 2 4 cbr 1000 ------- 0 2.0 0.1 37 112
- 3.46 2 4 cbr 1000 ------- 0 2.0 0.1 37 112
+ 3.46 3 4 cbr 1000 ------- 0 3.0 0.2 37 113
- 3.46 3 4 cbr 1000 ------- 0 3.0 0.2 37 113
r 3.46876 4 0 cbr 1000 ------- 0 1.0 0.0 37 111
r 3.477104 4 0 cbr 1000 ------- 0 2.0 0.1 37 112
r 3.485316 4 0 cbr 1000 ------- 0 3.0 0.2 37 113
h 3.54 1 4 cbr 1000 ------- 0 1.0 0.0 38 114
h 3.54 2 4 cbr 1000 ------- 0 2.0 0.1 38 115
h 3.54 3 4 cbr 1000 ------- 0 3.0 0.2 38 116
+ 3.54 1 4 cbr 1000 ------- 0 1.0 0.0 38 114
- 3.54 1 4 cbr 1000 ------- 0 1.0 0.0 38 114
+ 3.54 2 4 cbr 1000 ------- 0 2.0 0.1 38 115
- 3.54 2 4 cbr 1000 ------- 0 2.0 0.1 38 115
+ 3.54 3 4 cbr 1000 ------- 0 3.0 0.2 38 116
- 3.54 3 4 cbr 1000 ------- 0 3.0 0.2 38 116
r 3.548892 4 0 cbr 1000 ------- 0 3.0 0.2 38 116
r 3.559796 4 0 cbr 1000 ------- 0 2.0 0.1 38 115
r 3.568008 4 0 cbr 1000 ------- 0 1.0 0.0 38 114
h 3.62 1 4 cbr 1000 ------- 0 1.0 0.0 39 117
h 3.62 2 4 cbr 1000 ------- 0 2.0 0.1 39 118
h 3.62 3 4 cbr 1000 ------- 0 3.0 0.2 39 119
+ 3.62 1 4 cbr 1000 ------- 0 1.0 0.0 39 117
- 3.62 1 4 cbr 1000 ------- 0 1.0 0.0 39 117
+ 3.62 2 4 cbr 1000 ------- 0 2.0 0.1 39 118
- 3.62 2 4 cbr 1000 ------- 0 2.0 0.1 39 118
+ 3.62 3 4 cbr 1000 ------- 0 3.0 0.2 39 119
- 3.62 3 4 cbr 1000 ------- 0 3.0 0.2 39 119
r 3.628892 4 0 cbr 1000 ------- 0 2.0 0.1 39 118
r 3.639928 4 0 cbr 1000 ------- 0 1.0 0.0 39 117
r 3.64814 4 0 cbr 1000 ------- 0 3.0 0.2 39 119
h 3.7 1 4 cbr 1000 ------- 0 1.0 0.0 40 120
h 3.7 2 4 cbr 1000 ------- 0 2.0 0.1 40 121
h 3.7 3 4 cbr 1000 ------- 0 3.0 0.2 40 122
+ 3.7 1 4 cbr 1000 ------- 0 1.0 0.0 40 120
- 3.7 1 4 cbr 1000 ------- 0 1.0 0.0 40 120
+ 3.7 2 4 cbr 1000 ------- 0 2.0 0.1 40 121
- 3.7 2 4 cbr 1000 ------- 0 2.0 0.1 40 121
+ 3.7 3 4 cbr 1000 ------- 0 3.0 0.2 40 122
- 3.7 3 4 cbr 1000 ------- 0 3.0 0.2 40 122
r 3.708892 4 0 cbr 1000 ------- 0 3.0 0.2 40 122
r 3.71826 4 0 cbr 1000 ------- 0 2.0 0.1 40 121
r 3.726472 4 0 cbr 1000 ------- 0 1.0 0.0 40 120
h 3.78 1 4 cbr 1000 ------- 0 1.0 0.0 41 123
h 3.78 2 4 cbr 1000 ------- 0 2.0 0.1 41 124
h 3.78 3 4 cbr 1000 ------- 0 3.0 0.2 41 125
+ 3.78 1 4 cbr 1000 ------- 0 1.0 0.0 41 123
- 3.78 1 4 cbr 1000 ------- 0 1.0 0.0 41 123
+ 3.78 2 4 cbr 1000 ------- 0 2.0 0.1 41 124
- 3.78 2 4 cbr 1000 ------- 0 2.0 0.1 41 124
+ 3.78 3 4 cbr 1000 ------- 0 3.0 0.2 41 125
- 3.78 3 4 cbr 1000 ------- 0 3.0 0.2 41 125
r 3.788248 4 0 cbr 1000 ------- 0 3.0 0.2 41 125
r 3.797236 4 0 cbr 1000 ------- 0 1.0 0.0 41 123
r 3.805448 4 0 cbr 1000 ------- 0 2.0 0.1 41 124
h 3.86 1 4 cbr 1000 ------- 0 1.0 0.0 42 126
h 3.86 2 4 cbr 1000 ------- 0 2.0 0.1 42 127
h 3.86 3 4 cbr 1000 ------- 0 3.0 0.2 42 128
+ 3.86 1 4 cbr 1000 ------- 0 1.0 0.0 42 126
- 3.86 1 4 cbr 1000 ------- 0 1.0 0.0 42 126
+ 3.86 2 4 cbr 1000 ------- 0 2.0 0.1 42 127
- 3.86 2 4 cbr 1000 ------- 0 2.0 0.1 42 127
+ 3.86 3 4 cbr 1000 ------- 0 3.0 0.2 42 128
- 3.86 3 4 cbr 1000 ------- 0 3.0 0.2 42 128
r 3.86838 4 0 cbr 1000 ------- 0 3.0 0.2 42 128
r 3.87826 4 0 cbr 1000 ------- 0 1.0 0.0 42 126
r 3.886472 4 0 cbr 1000 ------- 0 2.0 0.1 42 127
h 3.94 1 4 cbr 1000 ------- 0 1.0 0.0 43 129
h 3.94 2 4 cbr 1000 ------- 0 2.0 0.1 43 130
h 3.94 3 4 cbr 1000 ------- 0 3.0 0.2 43 131
+ 3.94 1 4 cbr 1000 ------- 0 1.0 0.0 43 129
- 3.94 1 4 cbr 1000 ------- 0 1.0 0.0 43 129
+ 3.94 2 4 cbr 1000 ------- 0 2.0 0.1 43 130
- 3.94 2 4 cbr 1000 ------- 0 2.0 0.1 43 130
+ 3.94 3 4 cbr 1000 ------- 0 3.0 0.2 43 131
- 3.94 3 4 cbr 1000 ------- 0 3.0 0.2 43 131
r 3.948248 4 0 cbr 1000 ------- 0 3.0 0.2 43 131
r 3.956592 4 0 cbr 1000 ------- 0 2.0 0.1 43 130
r 3.964804 4 0 cbr 1000 ------- 0 1.0 0.0 43 129
h 4.02 1 4 cbr 1000 ------- 0 1.0 0.0 44 132
h 4.02 2 4 cbr 1000 ------- 0 2.0 0.1 44 133
h 4.02 3 4 cbr 1000 ------- 0 3.0 0.2 44 134
+ 4.02 1 4 cbr 1000 ------- 0 1.0 0.0 44 132
- 4.02 1 4 cbr 1000 ------- 0 1.0 0.0 44 132
+ 4.02 2 4 cbr 1000 ------- 0 2.0 0.1 44 133
- 4.02 2 4 cbr 1000 ------- 0 2.0 0.1 44 133
+ 4.02 3 4 cbr 1000 ------- 0 3.0 0.2 44 134
- 4.02 3 4 cbr 1000 ------- 0 3.0 0.2 44 134
r 4.028248 4 0 cbr 1000 ------- 0 2.0 0.1 44 133
r 4.039796 4 0 cbr 1000 ------- 0 3.0 0.2 44 134
r 4.048008 4 0 cbr 1000 ------- 0 1.0 0.0 44 132
h 4.1 1 4 cbr 1000 ------- 0 1.0 0.0 45 135
h 4.1 2 4 cbr 1000 ------- 0 2.0 0.1 45 136
h 4.1 3 4 cbr 1000 ------- 0 3.0 0.2 45 137
+ 4.1 1 4 cbr 1000 ------- 0 1.0 0.0 45 135
- 4.1 1 4 cbr 1000 ------- 0 1.0 0.0 45 135
+ 4.1 2 4 cbr 1000 ------- 0 2.0 0.1 45 136
- 4.1 2 4 cbr 1000 ------- 0 2.0 0.1 45 136
+ 4.1 3 4 cbr 1000 ------- 0 3.0 0.2 45 137
- 4.1 3 4 cbr 1000 ------- 0 3.0 0.2 45 137
r 4.108512 4 0 cbr 1000 ------- 0 3.0 0.2 45 137
r 4.116856 4 0 cbr 1000 ------- 0 1.0 0.0 45 135
r 4.125068 4 0 cbr 1000 ------- 0 2.0 0.1 45 136
h 4.18 1 4 cbr 1000 ------- 0 1.0 0.0 46 138
h 4.18 2 4 cbr 1000 ------- 0 2.0 0.1 46 139
h 4.18 3 4 cbr 1000 ------- 0 3.0 0.2 46 140
+ 4.18 1 4 cbr 1000 ------- 0 1.0 0.0 46 138
- 4.18 1 4 cbr 1000 ------- 0 1.0 0.0 46 138
+ 4.18 2 4 cbr 1000 ------- 0 2.0 0.1 46 139
- 4.18 2 4 cbr 1000 ------- 0 2.0 0.1 46 139
+ 4.18 3 4 cbr 1000 ------- 0 3.0 0.2 46 140
- 4.18 3 4 cbr 1000 ------- 0 3.0 0.2 46 140
r 4.18838 4 0 cbr 1000 ------- 0 2.0 0.1 46 139
r 4.196724 4 0 cbr 1000 ------- 0 1.0 0.0 46 138
r 4.204936 4 0 cbr 1000 ------- 0 3.0 0.2 46 140
h 4.26 1 4 cbr 1000 ------- 0 1.0 0.0 47 141
h 4.26 2 4 cbr 1000 ------- 0 2.0 0.1 47 142
h 4.26 3 4 cbr 1000 ------- 0 3.0 0.2 47 143
+ 4.26 1 4 cbr 1000 ------- 0 1.0 0.0 47 141
- 4.26 1 4 cbr 1000 ------- 0 1.0 0.0 47 141
+ 4.26 2 4 cbr 1000 ------- 0 2.0 0.1 47 142
- 4.26 2 4 cbr 1000 ------- 0 2.0 0.1 47 142
+ 4.26 3 4 cbr 1000 ------- 0 3.0 0.2 47 143
- 4.26 3 4 cbr 1000 ------- 0 3.0 0.2 47 143
r 4.268512 4 0 cbr 1000 ------- 0 1.0 0.0 47 141
r 4.27788 4 0 cbr 1000 ------- 0 2.0 0.1 47 142
r 4.286092 4 0 cbr 1000 ------- 0 3.0 0.2 47 143
h 4.34 1 4 cbr 1000 ------- 0 1.0 0.0 48 144
h 4.34 2 4 cbr 1000 ------- 0 2.0 0.1 48 145
h 4.34 3 4 cbr 1000 ------- 0 3.0 0.2 48 146
+ 4.34 1 4 cbr 1000 ------- 0 1.0 0.0 48 144
- 4.34 1 4 cbr 1000 ------- 0 1.0 0.0 48 144
+ 4.34 2 4 cbr 1000 ------- 0 2.0 0.1 48 145
- 4.34 2 4 cbr 1000 ------- 0 2.0 0.1 48 145
+ 4.34 3 4 cbr 1000 ------- 0 3.0 0.2 48 146
- 4.34 3 4 cbr 1000 ------- 0 3.0 0.2 48 146
r 4.348248 4 0 cbr 1000 ------- 0 2.0 0.1 48 145
r 4.358772 4 0 cbr 1000 ------- 0 3.0 0.2 48 146
r 4.366984 4 0 cbr 1000 ------- 0 1.0 0.0 48 144
h 4.42 1 4 cbr 1000 ------- 0 1.0 0.0 49 147
h 4.42 2 4 cbr 1000 ------- 0 2.0 0.1 49 148
h 4.42 3 4 cbr 1000 ------- 0 3.0 0.2 49 149
+ 4.42 1 4 cbr 1000 ------- 0 1.0 0.0 49 147
- 4.42 1 4 cbr 1000 ------- 0 1.0 0.0 49 147
+ 4.42 2 4 cbr 1000 ------- 0 2.0 0.1 49 148
- 4.42 2 4 cbr 1000 ------- 0 2.0 0.1 49 148
+ 4.42 3 4 cbr 1000 ------- 0 3.0 0.2 49 149
- 4.42 3 4 cbr 1000 ------- 0 3.0 0.2 49 149
r 4.42876 4 0 cbr 1000 ------- 0 3.0 0.2 49 149
r 4.438128 4 0 cbr 1000 ------- 0 2.0 0.1 49 148
r 4.44634 4 0 cbr 1000 ------- 0 1.0 0.0 49 147
h 4.5 1 4 cbr 1000 ------- 0 1.0 0.0 50 150
h 4.5 2 4 cbr 1000 ------- 0 2.0 0.1 50 151
h 4.5 3 4 cbr 1000 ------- 0 3.0 0.2 50 152
+ 4.5 1 4 cbr 1000 ------- 0 1.0 0.0 50 150
- 4.5 1 4 cbr 1000 ------- 0 1.0 0.0 50 150
+ 4.5 2 4 cbr 1000 ------- 0 2.0 0.1 50 151
- 4.5 2 4 cbr 1000 ------- 0 2.0 0.1 50 151
+ 4.5 3 4 cbr 1000 ------- 0 3.0 0.2 50 152
- 4.5 3 4 cbr 1000 ------- 0 3.0 0.2 50 152
r 4.50876 4 0 cbr 1000 ------- 0 2.0 0.1 50 151
r 4.517104 4 0 cbr 1000 ------- 0 3.0 0.2 50 152
r 4.525316 4 0 cbr 1000 ------- 0 1.0 0.0 50 150
h 4.58 1 4 cbr 1000 ------- 0 1.0 0.0 51 153
h 4.58 2 4 cbr 1000 ------- 0 2.0 0.1 51 154
h 4.58 3 4 cbr 1000 ------- 0 3.0 0.2 51 155
+ 4.58 1 4 cbr 1000 ------- 0 1.0 0.0 51 153
- 4.58 1 4 cbr 1000 ------- 0 1.0 0.0 51 153
+ 4.58 2 4 cbr 1000 ------- 0 2.0 0.1 51 154
- 4.58 2 4 cbr 1000 ------- 0 2.0 0.1 51 154
+ 4.58 3 4 cbr 1000 ------- 0 3.0 0.2 51 155
- 4.58 3 4 cbr 1000 ------- 0 3.0 0.2 51 155
r 4.588892 4 0 cbr 1000 ------- 0 2.0 0.1 51 154
r 4.59826 4 0 cbr 1000 ------- 0 3.0 0.2 51 155
r 4.606472 4 0 cbr 1000 ------- 0 1.0 0.0 51 153
h 4.66 1 4 cbr 1000 ------- 0 1.0 0.0 52 156
h 4.66 2 4 cbr 1000 ------- 0 2.0 0.1 52 157
h 4.66 3 4 cbr 1000 ------- 0 3.0 0.2 52 158
+ 4.66 1 4 cbr 1000 ------- 0 1.0 0.0 52 156
- 4.66 1 4 cbr 1000 ------- 0 1.0 0.0 52 156
+ 4.66 2 4 cbr 1000 ------- 0 2.0 0.1 52 157
- 4.66 2 4 cbr 1000 ------- 0 2.0 0.1 52 157
+ 4.66 3 4 cbr 1000 ------- 0 3.0 0.2 52 158
- 4.66 3 4 cbr 1000 ------- 0 3.0 0.2 52 158
r 4.66876 4 0 cbr 1000 ------- 0 2.0 0.1 52 157
r 4.679664 4 0 cbr 1000 ------- 0 1.0 0.0 52 156
r 4.687876 4 0 cbr 1000 ------- 0 3.0 0.2 52 158
h 4.74 1 4 cbr 1000 ------- 0 1.0 0.0 53 159
h 4.74 2 4 cbr 1000 ------- 0 2.0 0.1 53 160
h 4.74 3 4 cbr 1000 ------- 0 3.0 0.2 53 161
+ 4.74 1 4 cbr 1000 ------- 0 1.0 0.0 53 159
- 4.74 1 4 cbr 1000 ------- 0 1.0 0.0 53 159
+ 4.74 2 4 cbr 1000 ------- 0 2.0 0.1 53 160
- 4.74 2 4 cbr 1000 ------- 0 2.0 0.1 53 160
+ 4.74 3 4 cbr 1000 ------- 0 3.0 0.2 53 161
- 4.74 3 4 cbr 1000 ------- 0 3.0 0.2 53 161
r 4.74876 4 0 cbr 1000 ------- 0 1.0 0.0 53 159
r 4.759152 4 0 cbr 1000 ------- 0 3.0 0.2 53 161
r 4.767364 4 0 cbr 1000 ------- 0 2.0 0.1 53 160
h 4.82 1 4 cbr 1000 ------- 0 1.0 0.0 54 162
h 4.82 2 4 cbr 1000 ------- 0 2.0 0.1 54 163
h 4.82 3 4 cbr 1000 ------- 0 3.0 0.2 54 164
+ 4.82 1 4 cbr 1000 ------- 0 1.0 0.0 54 162
- 4.82 1 4 cbr 1000 ------- 0 1.0 0.0 54 162
+ 4.82 2 4 cbr 1000 ------- 0 2.0 0.1 54 163
- 4.82 2 4 cbr 1000 ------- 0 2.0 0.1 54 163
+ 4.82 3 4 cbr 1000 ------- 0 3.0 0.2 54 164
- 4.82 3 4 cbr 1000 ------- 0 3.0 0.2 54 164
r 4.828248 4 0 cbr 1000 ------- 0 1.0 0.0 54 162
r 4.839284 4 0 cbr 1000 ------- 0 2.0 0.1 54 163
r 4.847496 4 0 cbr 1000 ------- 0 3.0 0.2 54 164
h 4.9 1 4 cbr 1000 ------- 0 1.0 0.0 55 165
h 4.9 2 4 cbr 1000 ------- 0 2.0 0.1 55 166
h 4.9 3 4 cbr 1000 ------- 0 3.0 0.2 55 167
+ 4.9 1 4 cbr 1000 ------- 0 1.0 0.0 55 165
- 4.9 1 4 cbr 1000 ------- 0 1.0 0.0 55 165
+ 4.9 2 4 cbr 1000 ------- 0 2.0 0.1 55 166
- 4.9 2 4 cbr 1000 ------- 0 2.0 0.1 55 166