h 0.5 1 6 cbr 1000 ------- 0 1.0 0.0 0 0
h 0.5 2 6 cbr 1000 ------- 0 2.0 0.1 0 1
h 0.5 3 6 cbr 1000 ------- 0 3.0 0.2 0 2
h 0.5 4 6 cbr 1000 ------- 0 4.0 0.3 0 3
h 0.5 5 6 cbr 1000 ------- 0 5.0 0.4 0 4
+ 0.5 1 6 cbr 1000 ------- 0 1.0 0.0 0 0
- 0.5 1 6 cbr 1000 ------- 0 1.0 0.0 0 0
+ 0.5 2 6 cbr 1000 ------- 0 2.0 0.1 0 1
- 0.5 2 6 cbr 1000 ------- 0 2.0 0.1 0 1
+ 0.5 3 6 cbr 1000 ------- 0 3.0 0.2 0 2
- 0.5 3 6 cbr 1000 ------- 0 3.0 0.2 0 2
+ 0.5 4 6 cbr 1000 ------- 0 4.0 0.3 0 3
- 0.5 4 6 cbr 1000 ------- 0 4.0 0.3 0 3
+ 0.5 5 6 cbr 1000 ------- 0 5.0 0.4 0 4
- 0.5 5 6 cbr 1000 ------- 0 5.0 0.4 0 4
r 0.50838 6 0 cbr 1000 ------- 0 1.0 0.0 0 0
r 0.519416 6 0 cbr 1000 ------- 0 5.0 0.4 0 4
r 0.530832 6 0 cbr 1000 ------- 0 3.0 0.2 0 2
r 0.547368 6 0 cbr 1000 ------- 0 2.0 0.1 0 1
r 0.55558 6 0 cbr 1000 ------- 0 4.0 0.3 0 3
h 0.58 1 6 cbr 1000 ------- 0 1.0 0.0 1 5
h 0.58 2 6 cbr 1000 ------- 0 2.0 0.1 1 6
h 0.58 3 6 cbr 1000 ------- 0 3.0 0.2 1 7
h 0.58 4 6 cbr 1000 ------- 0 4.0 0.3 1 8
h 0.58 5 6 cbr 1000 ------- 0 5.0 0.4 1 9
+ 0.58 1 6 cbr 1000 ------- 0 1.0 0.0 1 5
- 0.58 1 6 cbr 1000 ------- 0 1.0 0.0 1 5
+ 0.58 2 6 cbr 1000 ------- 0 2.0 0.1 1 6
- 0.58 2 6 cbr 1000 ------- 0 2.0 0.1 1 6
+ 0.58 3 6 cbr 1000 ------- 0 3.0 0.2 1 7
- 0.58 3 6 cbr 1000 ------- 0 3.0 0.2 1 7
+ 0.58 4 6 cbr 1000 ------- 0 4.0 0.3 1 8
- 0.58 4 6 cbr 1000 ------- 0 4.0 0.3 1 8
+ 0.58 5 6 cbr 1000 ------- 0 5.0 0.4 1 9
- 0.58 5 6 cbr 1000 ------- 0 5.0 0.4 1 9
r 0.588892 6 0 cbr 1000 ------- 0 3.0 0.2 1 7
r 0.599284 6 0 cbr 1000 ------- 0 1.0 0.0 1 5
r 0.608652 6 0 cbr 1000 ------- 0 2.0 0.1 1 6
r 0.62826 6 0 cbr 1000 ------- 0 5.0 0.4 1 9
r 0.636472 6 0 cbr 1000 ------- 0 4.0 0.3 1 8
h 0.66 1 6 cbr 1000 ------- 0 1.0 0.0 2 10
h 0.66 2 6 cbr 1000 ------- 0 2.0 0.1 2 11
h 0.66 3 6 cbr 1000 ------- 0 3.0 0.2 2 12
h 0.66 4 6 cbr 1000 ------- 0 4.0 0.3 2 13
h 0.66 5 6 cbr 1000 ------- 0 5.0 0.4 2 14
+ 0.66 1 6 cbr 1000 ------- 0 1.0 0.0 2 10
- 0.66 1 6 cbr 1000 ------- 0 1.0 0.0 2 10
+ 0.66 2 6 cbr 1000 ------- 0 2.0 0.1 2 11
- 0.66 2 6 cbr 1000 ------- 0 2.0 0.1 2 11
+ 0.66 3 6 cbr 1000 ------- 0 3.0 0.2 2 12
- 0.66 3 6 cbr 1000 ------- 0 3.0 0.2 2 12
+ 0.66 4 6 cbr 1000 ------- 0 4.0 0.3 2 13
- 0.66 4 6 cbr 1000 ------- 0 4.0 0.3 2 13
+ 0.66 5 6 cbr 1000 ------- 0 5.0 0.4 2 14
- 0.66 5 6 cbr 1000 ------- 0 5.0 0.4 2 14
r 0.669024 6 0 cbr 1000 ------- 0 5.0 0.4 2 14
r 0.67788 6 0 cbr 1000 ------- 0 3.0 0.2 2 12
r 0.686736 6 0 cbr 1000 ------- 0 4.0 0.3 2 13
r 0.69764 6 0 cbr 1000 ------- 0 2.0 0.1 2 11
r 0.705852 6 0 cbr 1000 ------- 0 1.0 0.0 2 10
h 0.74 1 6 cbr 1000 ------- 0 1.0 0.0 3 15
h 0.74 2 6 cbr 1000 ------- 0 2.0 0.1 3 16
h 0.74 3 6 cbr 1000 ------- 0 3.0 0.2 3 17
h 0.74 4 6 cbr 1000 ------- 0 4.0 0.3 3 18
h 0.74 5 6 cbr 1000 ------- 0 5.0 0.4 3 19
+ 0.74 1 6 cbr 1000 ------- 0 1.0 0.0 3 15
- 0.74 1 6 cbr 1000 ------- 0 1.0 0.0 3 15
+ 0.74 2 6 cbr 1000 ------- 0 2.0 0.1 3 16
- 0.74 2 6 cbr 1000 ------- 0 2.0 0.1 3 16
+ 0.74 3 6 cbr 1000 ------- 0 3.0 0.2 3 17
- 0.74 3 6 cbr 1000 ------- 0 3.0 0.2 3 17
+ 0.74 4 6 cbr 1000 ------- 0 4.0 0.3 3 18
- 0.74 4 6 cbr 1000 ------- 0 4.0 0.3 3 18
+ 0.74 5 6 cbr 1000 ------- 0 5.0 0.4 3 19
- 0.74 5 6 cbr 1000 ------- 0 5.0 0.4 3 19
r 0.749668 6 0 cbr 1000 ------- 0 2.0 0.1 3 16
r 0.758524 6 0 cbr 1000 ------- 0 1.0 0.0 3 15
r 0.771476 6 0 cbr 1000 ------- 0 4.0 0.3 3 18
r 0.779688 6 0 cbr 1000 ------- 0 5.0 0.4 3 19
r 0.7879 6 0 cbr 1000 ------- 0 3.0 0.2 3 17
h 0.82 1 6 cbr 1000 ------- 0 1.0 0.0 4 20
h 0.82 2 6 cbr 1000 ------- 0 2.0 0.1 4 21
h 0.82 3 6 cbr 1000 ------- 0 3.0 0.2 4 22
h 0.82 4 6 cbr 1000 ------- 0 4.0 0.3 4 23
h 0.82 5 6 cbr 1000 ------- 0 5.0 0.4 4 24
+ 0.82 1 6 cbr 1000 ------- 0 1.0 0.0 4 20
- 0.82 1 6 cbr 1000 ------- 0 1.0 0.0 4 20
+ 0.82 2 6 cbr 1000 ------- 0 2.0 0.1 4 21
- 0.82 2 6 cbr 1000 ------- 0 2.0 0.1 4 21
+ 0.82 3 6 cbr 1000 ------- 0 3.0 0.2 4 22
- 0.82 3 6 cbr 1000 ------- 0 3.0 0.2 4 22
+ 0.82 4 6 cbr 1000 ------- 0 4.0 0.3 4 23
- 0.82 4 6 cbr 1000 ------- 0 4.0 0.3 4 23
+ 0.82 5 6 cbr 1000 ------- 0 5.0 0.4 4 24
- 0.82 5 6 cbr 1000 ------- 0 5.0 0.4 4 24
r 0.829024 6 0 cbr 1000 ------- 0 5.0 0.4 4 24
r 0.83788 6 0 cbr 1000 ------- 0 3.0 0.2 4 22
r 0.846736 6 0 cbr 1000 ------- 0 2.0 0.1 4 21
r 0.862248 6 0 cbr 1000 ------- 0 1.0 0.0 4 20
r 0.87046 6 0 cbr 1000 ------- 0 4.0 0.3 4 23
h 0.9 1 6 cbr 1000 ------- 0 1.0 0.0 5 25
h 0.9 2 6 cbr 1000 ------- 0 2.0 0.1 5 26
h 0.9 3 6 cbr 1000 ------- 0 3.0 0.2 5 27
h 0.9 4 6 cbr 1000 ------- 0 4.0 0.3 5 28
h 0.9 5 6 cbr 1000 ------- 0 5.0 0.4 5 29
+ 0.9 1 6 cbr 1000 ------- 0 1.0 0.0 5 25
- 0.9 1 6 cbr 1000 ------- 0 1.0 0.0 5 25
+ 0.9 2 6 cbr 1000 ------- 0 2.0 0.1 5 26
- 0.9 2 6 cbr 1000 ------- 0 2.0 0.1 5 26
+ 0.9 3 6 cbr 1000 ------- 0 3.0 0.2 5 27
- 0.9 3 6 cbr 1000 ------- 0 3.0 0.2 5 27
+ 0.9 4 6 cbr 1000 ------- 0 4.0 0.3 5 28
- 0.9 4 6 cbr 1000 ------- 0 4.0 0.3 5 28
+ 0.9 5 6 cbr 1000 ------- 0 5.0 0.4 5 29
- 0.9 5 6 cbr 1000 ------- 0 5.0 0.4 5 29
r 0.911072 6 0 cbr 1000 ------- 0 3.0 0.2 5 27
r 0.922488 6 0 cbr 1000 ------- 0 2.0 0.1 5 26
r 0.933904 6 0 cbr 1000 ------- 0 1.0 0.0 5 25
r 0.942116 6 0 cbr 1000 ------- 0 5.0 0.4 5 29
r 0.950328 6 0 cbr 1000 ------- 0 4.0 0.3 5 28
h 0.98 1 6 cbr 1000 ------- 0 1.0 0.0 6 30
h 0.98 2 6 cbr 1000 ------- 0 2.0 0.1 6 31
h 0.98 3 6 cbr 1000 ------- 0 3.0 0.2 6 32
h 0.98 4 6 cbr 1000 ------- 0 4.0 0.3 6 33
h 0.98 5 6 cbr 1000 ------- 0 5.0 0.4 6 34
+ 0.98 1 6 cbr 1000 ------- 0 1.0 0.0 6 30
- 0.98 1 6 cbr 1000 ------- 0 1.0 0.0 6 30
+ 0.98 2 6 cbr 1000 ------- 0 2.0 0.1 6 31
- 0.98 2 6 cbr 1000 ------- 0 2.0 0.1 6 31
+ 0.98 3 6 cbr 1000 ------- 0 3.0 0.2 6 32
- 0.98 3 6 cbr 1000 ------- 0 3.0 0.2 6 32
+ 0.98 4 6 cbr 1000 ------- 0 4.0 0.3 6 33
- 0.98 4 6 cbr 1000 ------- 0 4.0 0.3 6 33
+ 0.98 5 6 cbr 1000 ------- 0 5.0 0.4 6 34
- 0.98 5 6 cbr 1000 ------- 0 5.0 0.4 6 34
r 0.98838 6 0 cbr 1000 ------- 0 4.0 0.3 6 33
r 0.996856 6 0 cbr 1000 ------- 0 5.0 0.4 6 34
r 1.005712 6 0 cbr 1000 ------- 0 1.0 0.0 6 30
r 1.021224 6 0 cbr 1000 ------- 0 2.0 0.1 6 31
r 1.029436 6 0 cbr 1000 ------- 0 3.0 0.2 6 32
h 1.06 1 6 cbr 1000 ------- 0 1.0 0.0 7 35
h 1.06 2 6 cbr 1000 ------- 0 2.0 0.1 7 36
h 1.06 3 6 cbr 1000 ------- 0 3.0 0.2 7 37
h 1.06 4 6 cbr 1000 ------- 0 4.0 0.3 7 38
h 1.06 5 6 cbr 1000 ------- 0 5.0 0.4 7 39
+ 1.06 1 6 cbr 1000 ------- 0 1.0 0.0 7 35
- 1.06 1 6 cbr 1000 ------- 0 1.0 0.0 7 35
+ 1.06 2 6 cbr 1000 ------- 0 2.0 0.1 7 36
- 1.06 2 6 cbr 1000 ------- 0 2.0 0.1 7 36
+ 1.06 3 6 cbr 1000 ------- 0 3.0 0.2 7 37
- 1.06 3 6 cbr 1000 ------- 0 3.0 0.2 7 37
+ 1.06 4 6 cbr 1000 ------- 0 4.0 0.3 7 38
- 1.06 4 6 cbr 1000 ------- 0 4.0 0.3 7 38
+ 1.06 5 6 cbr 1000 ------- 0 5.0 0.4 7 39
- 1.06 5 6 cbr 1000 ------- 0 5.0 0.4 7 39
r 1.06838 6 0 cbr 1000 ------- 0 2.0 0.1 7 36
r 1.077748 6 0 cbr 1000 ------- 0 3.0 0.2 7 37
r 1.086092 6 0 cbr 1000 ------- 0 5.0 0.4 7 39
r 1.094948 6 0 cbr 1000 ------- 0 4.0 0.3 7 38
r 1.10826 6 0 cbr 1000 ------- 0 1.0 0.0 7 35
h 1.14 1 6 cbr 1000 ------- 0 1.0 0.0 8 40
h 1.14 2 6 cbr 1000 ------- 0 2.0 0.1 8 41
h 1.14 3 6 cbr 1000 ------- 0 3.0 0.2 8 42
h 1.14 4 6 cbr 1000 ------- 0 4.0 0.3 8 43
h 1.14 5 6 cbr 1000 ------- 0 5.0 0.4 8 44
+ 1.14 1 6 cbr 1000 ------- 0 1.0 0.0 8 40
- 1.14 1 6 cbr 1000 ------- 0 1.0 0.0 8 40
+ 1.14 2 6 cbr 1000 ------- 0 2.0 0.1 8 41
- 1.14 2 6 cbr 1000 ------- 0 2.0 0.1 8 41
+ 1.14 3 6 cbr 1000 ------- 0 3.0 0.2 8 42
- 1.14 3 6 cbr 1000 ------- 0 3.0 0.2 8 42
+ 1.14 4 6 cbr 1000 ------- 0 4.0 0.3 8 43
- 1.14 4 6 cbr 1000 ------- 0 4.0 0.3 8 43
+ 1.14 5 6 cbr 1000 ------- 0 5.0 0.4 8 44
- 1.14 5 6 cbr 1000 ------- 0 5.0 0.4 8 44
r 1.148892 6 0 cbr 1000 ------- 0 4.0 0.3 8 43
r 1.158772 6 0 cbr 1000 ------- 0 3.0 0.2 8 42
r 1.167628 6 0 cbr 1000 ------- 0 1.0 0.0 8 40
r 1.177868 6 0 cbr 1000 ------- 0 5.0 0.4 8 44
r 1.18608 6 0 cbr 1000 ------- 0 2.0 0.1 8 41
h 1.22 1 6 cbr 1000 ------- 0 1.0 0.0 9 45
h 1.22 2 6 cbr 1000 ------- 0 2.0 0.1 9 46
h 1.22 3 6 cbr 1000 ------- 0 3.0 0.2 9 47
h 1.22 4 6 cbr 1000 ------- 0 4.0 0.3 9 48
h 1.22 5 6 cbr 1000 ------- 0 5.0 0.4 9 49
+ 1.22 1 6 cbr 1000 ------- 0 1.0 0.0 9 45
- 1.22 1 6 cbr 1000 ------- 0 1.0 0.0 9 45
+ 1.22 2 6 cbr 1000 ------- 0 2.0 0.1 9 46
- 1.22 2 6 cbr 1000 ------- 0 2.0 0.1 9 46
+ 1.22 3 6 cbr 1000 ------- 0 3.0 0.2 9 47
- 1.22 3 6 cbr 1000 ------- 0 3.0 0.2 9 47
+ 1.22 4 6 cbr 1000 ------- 0 4.0 0.3 9 48
- 1.22 4 6 cbr 1000 ------- 0 4.0 0.3 9 48
+ 1.22 5 6 cbr 1000 ------- 0 5.0 0.4 9 49
- 1.22 5 6 cbr 1000 ------- 0 5.0 0.4 9 49
r 1.231072 6 0 cbr 1000 ------- 0 3.0 0.2 9 47
r 1.239416 6 0 cbr 1000 ------- 0 4.0 0.3 9 48
r 1.250832 6 0 cbr 1000 ------- 0 2.0 0.1 9 46
r 1.259044 6 0 cbr 1000 ------- 0 1.0 0.0 9 45
r 1.267256 6 0 cbr 1000 ------- 0 5.0 0.4 9 49
h 1.3 1 6 cbr 1000 ------- 0 1.0 0.0 10 50
h 1.3 2 6 cbr 1000 ------- 0 2.0 0.1 10 51
h 1.3 3 6 cbr 1000 ------- 0 3.0 0.2 10 52
h 1.3 4 6 cbr 1000 ------- 0 4.0 0.3 10 53
h 1.3 5 6 cbr 1000 ------- 0 5.0 0.4 10 54
+ 1.3 1 6 cbr 1000 ------- 0 1.0 0.0 10 50
- 1.3 1 6 cbr 1000 ------- 0 1.0 0.0 10 50
+ 1.3 2 6 cbr 1000 ------- 0 2.0 0.1 10 51
- 1.3 2 6 cbr 1000 ------- 0 2.0 0.1 10 51
+ 1.3 3 6 cbr 1000 ------- 0 3.0 0.2 10 52
- 1.3 3 6 cbr 1000 ------- 0 3.0 0.2 10 52
+ 1.3 4 6 cbr 1000 ------- 0 4.0 0.3 10 53
- 1.3 4 6 cbr 1000 ------- 0 4.0 0.3 10 53
+ 1.3 5 6 cbr 1000 ------- 0 5.0 0.4 10 54
- 1.3 5 6 cbr 1000 ------- 0 5.0 0.4 10 54
r 1.30838 6 0 cbr 1000 ------- 0 3.0 0.2 10 52
r 1.317748 6 0 cbr 1000 ------- 0 4.0 0.3 10 53
r 1.326092 6 0 cbr 1000 ------- 0 2.0 0.1 10 51
r 1.337508 6 0 cbr 1000 ------- 0 5.0 0.4 10 54
r 1.34572 6 0 cbr 1000 ------- 0 1.0 0.0 10 50
h 1.38 1 6 cbr 1000 ------- 0 1.0 0.0 11 55
h 1.38 2 6 cbr 1000 ------- 0 2.0 0.1 11 56
h 1.38 3 6 cbr 1000 ------- 0 3.0 0.2 11 57
h 1.38 4 6 cbr 1000 ------- 0 4.0 0.3 11 58
h 1.38 5 6 cbr 1000 ------- 0 5.0 0.4 11 59
+ 1.38 1 6 cbr 1000 ------- 0 1.0 0.0 11 55
- 1.38 1 6 cbr 1000 ------- 0 1.0 0.0 11 55
+ 1.38 2 6 cbr 1000 ------- 0 2.0 0.1 11 56
- 1.38 2 6 cbr 1000 ------- 0 2.0 0.1 11 56
+ 1.38 3 6 cbr 1000 ------- 0 3.0 0.2 11 57
- 1.38 3 6 cbr 1000 ------- 0 3.0 0.2 11 57
+ 1.38 4 6 cbr 1000 ------- 0 4.0 0.3 11 58
- 1.38 4 6 cbr 1000 ------- 0 4.0 0.3 11 58
+ 1.38 5 6 cbr 1000 ------- 0 5.0 0.4 11 59
- 1.38 5 6 cbr 1000 ------- 0 5.0 0.4 11 59
r 1.38838 6 0 cbr 1000 ------- 0 5.0 0.4 11 59
r 1.39826 6 0 cbr 1000 ------- 0 1.0 0.0 11 55
r 1.409164 6 0 cbr 1000 ------- 0 4.0 0.3 11 58
r 1.425188 6 0 cbr 1000 ------- 0 2.0 0.1 11 56
r 1.43594 6 0 cbr 1000 ------- 0 3.0 0.2 11 57
h 1.46 1 6 cbr 1000 ------- 0 1.0 0.0 12 60
h 1.46 2 6 cbr 1000 ------- 0 2.0 0.1 12 61
h 1.46 3 6 cbr 1000 ------- 0 3.0 0.2 12 62
h 1.46 4 6 cbr 1000 ------- 0 4.0 0.3 12 63
h 1.46 5 6 cbr 1000 ------- 0 5.0 0.4 12 64
+ 1.46 1 6 cbr 1000 ------- 0 1.0 0.0 12 60
- 1.46 1 6 cbr 1000 ------- 0 1.0 0.0 12 60
+ 1.46 2 6 cbr 1000 ------- 0 2.0 0.1 12 61
- 1.46 2 6 cbr 1000 ------- 0 2.0 0.1 12 61
+ 1.46 3 6 cbr 1000 ------- 0 3.0 0.2 12 62
- 1.46 3 6 cbr 1000 ------- 0 3.0 0.2 12 62
+ 1.46 4 6 cbr 1000 ------- 0 4.0 0.3 12 63
- 1.46 4 6 cbr 1000 ------- 0 4.0 0.3 12 63
+ 1.46 5 6 cbr 1000 ------- 0 5.0 0.4 12 64
- 1.46 5 6 cbr 1000 ------- 0 5.0 0.4 12 64
r 1.470428 6 0 cbr 1000 ------- 0 2.0 0.1 12 61
r 1.481332 6 0 cbr 1000 ------- 0 5.0 0.4 12 64
r 1.489544 6 0 cbr 1000 ------- 0 3.0 0.2 12 62
r 1.499936 6 0 cbr 1000 ------- 0 1.0 0.0 12 60
r 1.52656 6 0 cbr 1000 ------- 0 4.0 0.3 12 63
h 1.54 1 6 cbr 1000 ------- 0 1.0 0.0 13 65
h 1.54 2 6 cbr 1000 ------- 0 2.0 0.1 13 66
h 1.54 3 6 cbr 1000 ------- 0 3.0 0.2 13 67
h 1.54 4 6 cbr 1000 ------- 0 4.0 0.3 13 68
h 1.54 5 6 cbr 1000 ------- 0 5.0 0.4 13 69
+ 1.54 1 6 cbr 1000 ------- 0 1.0 0.0 13 65
- 1.54 1 6 cbr 1000 ------- 0 1.0 0.0 13 65
+ 1.54 2 6 cbr 1000 ------- 0 2.0 0.1 13 66
- 1.54 2 6 cbr 1000 ------- 0 2.0 0.1 13 66
+ 1.54 3 6 cbr 1000 ------- 0 3.0 0.2 13 67
- 1.54 3 6 cbr 1000 ------- 0 3.0 0.2 13 67
+ 1.54 4 6 cbr 1000 ------- 0 4.0 0.3 13 68
- 1.54 4 6 cbr 1000 ------- 0 4.0 0.3 13 68
+ 1.54 5 6 cbr 1000 ------- 0 5.0 0.4 13 69
- 1.54 5 6 cbr 1000 ------- 0 5.0 0.4 13 69
r 1.549404 6 0 cbr 1000 ------- 0 2.0 0.1 13 66
r 1.55826 6 0 cbr 1000 ------- 0 3.0 0.2 13 67
r 1.568652 6 0 cbr 1000 ------- 0 1.0 0.0 13 65
r 1.586212 6 0 cbr 1000 ------- 0 5.0 0.4 13 69
r 1.596452 6 0 cbr 1000 ------- 0 4.0 0.3 13 68
h 1.62 1 6 cbr 1000 ------- 0 1.0 0.0 14 70
h 1.62 2 6 cbr 1000 ------- 0 2.0 0.1 14 71
h 1.62 3 6 cbr 1000 ------- 0 3.0 0.2 14 72
h 1.62 4 6 cbr 1000 ------- 0 4.0 0.3 14 73
h 1.62 5 6 cbr 1000 ------- 0 5.0 0.4 14 74
+ 1.62 1 6 cbr 1000 ------- 0 1.0 0.0 14 70
- 1.62 1 6 cbr 1000 ------- 0 1.0 0.0 14 70
+ 1.62 2 6 cbr 1000 ------- 0 2.0 0.1 14 71
- 1.62 2 6 cbr 1000 ------- 0 2.0 0.1 14 71
+ 1.62 3 6 cbr 1000 ------- 0 3.0 0.2 14 72
- 1.62 3 6 cbr 1000 ------- 0 3.0 0.2 14 72
+ 1.62 4 6 cbr 1000 ------- 0 4.0 0.3 14 73
- 1.62 4 6 cbr 1000 ------- 0 4.0 0.3 14 73
+ 1.62 5 6 cbr 1000 ------- 0 5.0 0.4 14 74
- 1.62 5 6 cbr 1000 ------- 0 5.0 0.4 14 74
r 1.628248 6 0 cbr 1000 ------- 0 3.0 0.2 14 72
r 1.636592 6 0 cbr 1000 ------- 0 2.0 0.1 14 71
r 1.646984 6 0 cbr 1000 ------- 0 1.0 0.0 14 70
r 1.661472 6 0 cbr 1000 ------- 0 4.0 0.3 14 73
r 1.669684 6 0 cbr 1000 ------- 0 5.0 0.4 14 74
h 1.7 1 6 cbr 1000 ------- 0 1.0 0.0 15 75
h 1.7 2 6 cbr 1000 ------- 0 2.0 0.1 15 76
h 1.7 3 6 cbr 1000 ------- 0 3.0 0.2 15 77
h 1.7 4 6 cbr 1000 ------- 0 4.0 0.3 15 78
h 1.7 5 6 cbr 1000 ------- 0 5.0 0.4 15 79
+ 1.7 1 6 cbr 1000 ------- 0 1.0 0.0 15 75
- 1.7 1 6 cbr 1000 ------- 0 1.0 0.0 15 75
+ 1.7 2 6 cbr 1000 ------- 0 2.0 0.1 15 76
- 1.7 2 6 cbr 1000 ------- 0 2.0 0.1 15 76
+ 1.7 3 6 cbr 1000 ------- 0 3.0 0.2 15 77
- 1.7 3 6 cbr 1000 ------- 0 3.0 0.2 15 77
+ 1.7 4 6 cbr 1000 ------- 0 4.0 0.3 15 78
- 1.7 4 6 cbr 1000 ------- 0 4.0 0.3 15 78
+ 1.7 5 6 cbr 1000 ------- 0 5.0 0.4 15 79
- 1.7 5 6 cbr 1000 ------- 0 5.0 0.4 15 79
r 1.708892 6 0 cbr 1000 ------- 0 3.0 0.2 15 77
r 1.717748 6 0 cbr 1000 ------- 0 4.0 0.3 15 78
r 1.729676 6 0 cbr 1000 ------- 0 5.0 0.4 15 79
r 1.747748 6 0 cbr 1000 ------- 0 2.0 0.1 15 76
r 1.75596 6 0 cbr 1000 ------- 0 1.0 0.0 15 75
h 1.78 1 6 cbr 1000 ------- 0 1.0 0.0 16 80
h 1.78 2 6 cbr 1000 ------- 0 2.0 0.1 16 81
h 1.78 3 6 cbr 1000 ------- 0 3.0 0.2 16 82
h 1.78 4 6 cbr 1000 ------- 0 4.0 0.3 16 83
h 1.78 5 6 cbr 1000 ------- 0 5.0 0.4 16 84
+ 1.78 1 6 cbr 1000 ------- 0 1.0 0.0 16 80
- 1.78 1 6 cbr 1000 ------- 0 1.0 0.0 16 80
+ 1.78 2 6 cbr 1000 ------- 0 2.0 0.1 16 81
- 1.78 2 6 cbr 1000 ------- 0 2.0 0.1 16 81
+ 1.78 3 6 cbr 1000 ------- 0 3.0 0.2 16 82
- 1.78 3 6 cbr 1000 ------- 0 3.0 0.2 16 82
+ 1.78 4 6 cbr 1000 ------- 0 4.0 0.3 16 83
- 1.78 4 6 cbr 1000 ------- 0 4.0 0.3 16 83
+ 1.78 5 6 cbr 1000 ------- 0 5.0 0.4 16 84
- 1.78 5 6 cbr 1000 ------- 0 5.0 0.4 16 84
r 1.789404 6 0 cbr 1000 ------- 0 3.0 0.2 16 82
r 1.797748 6 0 cbr 1000 ------- 0 4.0 0.3 16 83
r 1.807116 6 0 cbr 1000 ------- 0 1.0 0.0 16 80
r 1.828392 6 0 cbr 1000 ------- 0 2.0 0.1 16 81
r 1.842216 6 0 cbr 1000 ------- 0 5.0 0.4 16 84
h 1.86 1 6 cbr 1000 ------- 0 1.0 0.0 17 85
h 1.86 2 6 cbr 1000 ------- 0 2.0 0.1 17 86
h 1.86 3 6 cbr 1000 ------- 0 3.0 0.2 17 87
h 1.86 4 6 cbr 1000 ------- 0 4.0 0.3 17 88
h 1.86 5 6 cbr 1000 ------- 0 5.0 0.4 17 89
+ 1.86 1 6 cbr 1000 ------- 0 1.0 0.0 17 85
- 1.86 1 6 cbr 1000 ------- 0 1.0 0.0 17 85
+ 1.86 2 6 cbr 1000 ------- 0 2.0 0.1 17 86
- 1.86 2 6 cbr 1000 ------- 0 2.0 0.1 17 86
+ 1.86 3 6 cbr 1000 ------- 0 3.0 0.2 17 87
- 1.86 3 6 cbr 1000 ------- 0 3.0 0.2 17 87
+ 1.86 4 6 cbr 1000 ------- 0 4.0 0.3 17 88
- 1.86 4 6 cbr 1000 ------- 0 4.0 0.3 17 88
+ 1.86 5 6 cbr 1000 ------- 0 5.0 0.4 17 89
- 1.86 5 6 cbr 1000 ------- 0 5.0 0.4 17 89
r 1.86876 6 0 cbr 1000 ------- 0 1.0 0.0 17 85
r 1.882356 6 0 cbr 1000 ------- 0 4.0 0.3 17 88
r 1.891724 6 0 cbr 1000 ------- 0 3.0 0.2 17 87
r 1.90094 6 0 cbr 1000 ------- 0 5.0 0.4 17 89
r 1.909152 6 0 cbr 1000 ------- 0 2.0 0.1 17 86
h 1.94 1 6 cbr 1000 ------- 0 1.0 0.0 18 90
h 1.94 2 6 cbr 1000 ------- 0 2.0 0.1 18 91
h 1.94 3 6 cbr 1000 ------- 0 3.0 0.2 18 92
h 1.94 4 6 cbr 1000 ------- 0 4.0 0.3 18 93
h 1.94 5 6 cbr 1000 ------- 0 5.0 0.4 18 94
+ 1.94 1 6 cbr 1000 ------- 0 1.0 0.0 18 90
- 1.94 1 6 cbr 1000 ------- 0 1.0 0.0 18 90
+ 1.94 2 6 cbr 1000 ------- 0 2.0 0.1 18 91
- 1.94 2 6 cbr 1000 ------- 0 2.0 0.1 18 91
+ 1.94 3 6 cbr 1000 ------- 0 3.0 0.2 18 92
- 1.94 3 6 cbr 1000 ------- 0 3.0 0.2 18 92
+ 1.94 4 6 cbr 1000 ------- 0 4.0 0.3 18 93
- 1.94 4 6 cbr 1000 ------- 0 4.0 0.3 18 93
+ 1.94 5 6 cbr 1000 ------- 0 5.0 0.4 18 94
- 1.94 5 6 cbr 1000 ------- 0 5.0 0.4 18 94
r 1.948248 6 0 cbr 1000 ------- 0 2.0 0.1 18 91
r 1.956592 6 0 cbr 1000 ------- 0 4.0 0.3 18 93
r 1.966984 6 0 cbr 1000 ------- 0 5.0 0.4 18 94
r 1.979424 6 0 cbr 1000 ------- 0 1.0 0.0 18 90
r 1.987636 6 0 cbr 1000 ------- 0 3.0 0.2 18 92
h 2.02 1 6 cbr 1000 ------- 0 1.0 0.0 19 95
h 2.02 2 6 cbr 1000 ------- 0 2.0 0.1 19 96
h 2.02 3 6 cbr 1000 ------- 0 3.0 0.2 19 97
h 2.02 4 6 cbr 1000 ------- 0 4.0 0.3 19 98
h 2.02 5 6 cbr 1000 ------- 0 5.0 0.4 19 99
+ 2.02 1 6 cbr 1000 ------- 0 1.0 0.0 19 95
- 2.02 1 6 cbr 1000 ------- 0 1.0 0.0 19 95
+ 2.02 2 6 cbr 1000 ------- 0 2.0 0.1 19 96
- 2.02 2 6 cbr 1000 ------- 0 2.0 0.1 19 96
+ 2.02 3 6 cbr 1000 ------- 0 3.0 0.2 19 97
- 2.02 3 6 cbr 1000 ------- 0 3.0 0.2 19 97
+ 2.02 4 6 cbr 1000 ------- 0 4.0 0.3 19 98
- 2.02 4 6 cbr 1000 ------- 0 4.0 0.3 19 98
+ 2.02 5 6 cbr 1000 ------- 0 5.0 0.4 19 99
- 2.02 5 6 cbr 1000 ------- 0 5.0 0.4 19 99
r 2.02838 6 0 cbr 1000 ------- 0 1.0 0.0 19 95
r 2.037236 6 0 cbr 1000 ------- 0 4.0 0.3 19 98
r 2.047628 6 0 cbr 1000 ------- 0 2.0 0.1 19 96
r 2.060068 6 0 cbr 1000 ------- 0 5.0 0.4 19 99
r 2.086692 6 0 cbr 1000 ------- 0 3.0 0.2 19 97
h 2.1 1 6 cbr 1000 ------- 0 1.0 0.0 20 100
h 2.1 2 6 cbr 1000 ------- 0 2.0 0.1 20 101
h 2.1 3 6 cbr 1000 ------- 0 3.0 0.2 20 102
h 2.1 4 6 cbr 1000 ------- 0 4.0 0.3 20 103
h 2.1 5 6 cbr 1000 ------- 0 5.0 0.4 20 104
+ 2.1 1 6 cbr 1000 ------- 0 1.0 0.0 20 100
- 2.1 1 6 cbr 1000 ------- 0 1.0 0.0 20 100
+ 2.1 2 6 cbr 1000 ------- 0 2.0 0.1 20 101
- 2.1 2 6 cbr 1000 ------- 0 2.0 0.1 20 101
+ 2.1 3 6 cbr 1000 ------- 0 3.0 0.2 20 102
- 2.1 3 6 cbr 1000 ------- 0 3.0 0.2 20 102
+ 2.1 4 6 cbr 1000 ------- 0 4.0 0.3 20 103
- 2.1 4 6 cbr 1000 ------- 0 4.0 0.3 20 103
+ 2.1 5 6 cbr 1000 ------- 0 5.0 0.4 20 104
- 2.1 5 6 cbr 1000 ------- 0 5.0 0.4 20 104
r 2.108892 6 0 cbr 1000 ------- 0 5.0 0.4 20 104
r 2.117236 6 0 cbr 1000 ------- 0 2.0 0.1 20 101
r 2.1307 6 0 cbr 1000 ------- 0 4.0 0.3 20 103
r 2.141092 6 0 cbr 1000 ------- 0 3.0 0.2 20 102
r 2.149304 6 0 cbr 1000 ------- 0 1.0 0.0 20 100
h 2.18 1 6 cbr 1000 ------- 0 1.0 0.0 21 105
h 2.18 2 6 cbr 1000 ------- 0 2.0 0.1 21 106
h 2.18 3 6 cbr 1000 ------- 0 3.0 0.2 21 107
h 2.18 4 6 cbr 1000 ------- 0 4.0 0.3 21 108
h 2.18 5 6 cbr 1000 ------- 0 5.0 0.4 21 109
+ 2.18 1 6 cbr 1000 ------- 0 1.0 0.0 21 105
- 2.18 1 6 cbr 1000 ------- 0 1.0 0.0 21 105
+ 2.18 2 6 cbr 1000 ------- 0 2.0 0.1 21 106
- 2.18 2 6 cbr 1000 ------- 0 2.0 0.1 21 106
+ 2.18 3 6 cbr 1000 ------- 0 3.0 0.2 21 107
- 2.18 3 6 cbr 1000 ------- 0 3.0 0.2 21 107
+ 2.18 4 6 cbr 1000 ------- 0 4.0 0.3 21 108
- 2.18 4 6 cbr 1000 ------- 0 4.0 0.3 21 108
+ 2.18 5 6 cbr 1000 ------- 0 5.0 0.4 21 109
- 2.18 5 6 cbr 1000 ------- 0 5.0 0.4 21 109
r 2.18838 6 0 cbr 1000 ------- 0 4.0 0.3 21 108
r 2.197748 6 0 cbr 1000 ------- 0 2.0 0.1 21 106
r 2.209676 6 0 cbr 1000 ------- 0 5.0 0.4 21 109
r 2.227748 6 0 cbr 1000 ------- 0 3.0 0.2 21 107
r 2.23596 6 0 cbr 1000 ------- 0 1.0 0.0 21 105
h 2.26 1 6 cbr 1000 ------- 0 1.0 0.0 22 110
h 2.26 2 6 cbr 1000 ------- 0 2.0 0.1 22 111
h 2.26 3 6 cbr 1000 ------- 0 3.0 0.2 22 112
h 2.26 4 6 cbr 1000 ------- 0 4.0 0.3 22 113
h 2.26 5 6 cbr 1000 ------- 0 5.0 0.4 22 114
+ 2.26 1 6 cbr 1000 ------- 0 1.0 0.0 22 110
- 2.26 1 6 cbr 1000 ------- 0 1.0 0.0 22 110
+ 2.26 2 6 cbr 1000 ------- 0 2.0 0.1 22 111
- 2.26 2 6 cbr 1000 ------- 0 2.0 0.1 22 111
+ 2.26 3 6 cbr 1000 ------- 0 3.0 0.2 22 112
- 2.26 3 6 cbr 1000 ------- 0 3.0 0.2 22 112
+ 2.26 4 6 cbr 1000 ------- 0 4.0 0.3 22 113
- 2.26 4 6 cbr 1000 ------- 0 4.0 0.3 22 113
+ 2.26 5 6 cbr 1000 ------- 0 5.0 0.4 22 114
- 2.26 5 6 cbr 1000 ------- 0 5.0 0.4 22 114
r 2.268892 6 0 cbr 1000 ------- 0 4.0 0.3 22 113
r 2.27826 6 0 cbr 1000 ------- 0 2.0 0.1 22 111
r 2.28814 6 0 cbr 1000 ------- 0 3.0 0.2 22 112
r 2.319012 6 0 cbr 1000 ------- 0 5.0 0.4 22 114
r 2.327224 6 0 cbr 1000 ------- 0 1.0 0.0 22 110
h 2.34 1 6 cbr 1000 ------- 0 1.0 0.0 23 115
h 2.34 2 6 cbr 1000 ------- 0 2.0 0.1 23 116
h 2.34 3 6 cbr 1000 ------- 0 3.0 0.2 23 117
h 2.34 4 6 cbr 1000 ------- 0 4.0 0.3 23 118
h 2.34 5 6 cbr 1000 ------- 0 5.0 0.4 23 119
+ 2.34 1 6 cbr 1000 ------- 0 1.0 0.0 23 115
- 2.34 1 6 cbr 1000 ------- 0 1.0 0.0 23 115
+ 2.34 2 6 cbr 1000 ------- 0 2.0 0.1 23 116
- 2.34 2 6 cbr 1000 ------- 0 2.0 0.1 23 116
+ 2.34 3 6 cbr 1000 ------- 0 3.0 0.2 23 117
- 2.34 3 6 cbr 1000 ------- 0 3.0 0.2 23 117
+ 2.34 4 6 cbr 1000 ------- 0 4.0 0.3 23 118
- 2.34 4 6 cbr 1000 ------- 0 4.0 0.3 23 118
+ 2.34 5 6 cbr 1000 ------- 0 5.0 0.4 23 119
- 2.34 5 6 cbr 1000 ------- 0 5.0 0.4 23 119
r 2.34838 6 0 cbr 1000 ------- 0 4.0 0.3 23 118
r 2.356724 6 0 cbr 1000 ------- 0 2.0 0.1 23 116
r 2.36558 6 0 cbr 1000 ------- 0 5.0 0.4 23 119
r 2.374436 6 0 cbr 1000 ------- 0 3.0 0.2 23 117
r 2.382648 6 0 cbr 1000 ------- 0 1.0 0.0 23 115
h 2.42 1 6 cbr 1000 ------- 0 1.0 0.0 24 120
h 2.42 2 6 cbr 1000 ------- 0 2.0 0.1 24 121
h 2.42 3 6 cbr 1000 ------- 0 3.0 0.2 24 122
h 2.42 4 6 cbr 1000 ------- 0 4.0 0.3 24 123
h 2.42 5 6 cbr 1000 ------- 0 5.0 0.4 24 124
+ 2.42 1 6 cbr 1000 ------- 0 1.0 0.0 24 120
- 2.42 1 6 cbr 1000 ------- 0 1.0 0.0 24 120
+ 2.42 2 6 cbr 1000 ------- 0 2.0 0.1 24 121
- 2.42 2 6 cbr 1000 ------- 0 2.0 0.1 24 121
+ 2.42 3 6 cbr 1000 ------- 0 3.0 0.2 24 122
- 2.42 3 6 cbr 1000 ------- 0 3.0 0.2 24 122
+ 2.42 4 6 cbr 1000 ------- 0 4.0 0.3 24 123
- 2.42 4 6 cbr 1000 ------- 0 4.0 0.3 24 123
+ 2.42 5 6 cbr 1000 ------- 0 5.0 0.4 24 124
- 2.42 5 6 cbr 1000 ------- 0 5.0 0.4 24 124
r 2.42838 6 0 cbr 1000 ------- 0 5.0 0.4 24 124
r 2.436724 6 0 cbr 1000 ------- 0 1.0 0.0 24 120
r 2.44558 6 0 cbr 1000 ------- 0 3.0 0.2 24 122
r 2.456484 6 0 cbr 1000 ------- 0 4.0 0.3 24 123
r 2.464696 6 0 cbr 1000 ------- 0 2.0 0.1 24 121
h 2.5 1 6 cbr 1000 ------- 0 1.0 0.0 25 125
h 2.5 2 6 cbr 1000 ------- 0 2.0 0.1 25 126
h 2.5 3 6 cbr 1000 ------- 0 3.0 0.2 25 127
h 2.5 4 6 cbr 1000 ------- 0 4.0 0.3 25 128
h 2.5 5 6 cbr 1000 ------- 0 5.0 0.4 25 129
+ 2.5 1 6 cbr 1000 ------- 0 1.0 0.0 25 125
- 2.5 1 6 cbr 1000 ------- 0 1.0 0.0 25 125
+ 2.5 2 6 cbr 1000 ------- 0 2.0 0.1 25 126
- 2.5 2 6 cbr 1000 ------- 0 2.0 0.1 25 126
+ 2.5 3 6 cbr 1000 ------- 0 3.0 0.2 25 127
- 2.5 3 6 cbr 1000 ------- 0 3.0 0.2 25 127
+ 2.5 4 6 cbr 1000 ------- 0 4.0 0.3 25 128
- 2.5 4 6 cbr 1000 ------- 0 4.0 0.3 25 128
+ 2.5 5 6 cbr 1000 ------- 0 5.0 0.4 25 129
- 2.5 5 6 cbr 1000 ------- 0 5.0 0.4 25 129
r 2.509916 6 0 cbr 1000 ------- 0 3.0 0.2 25 127
r 2.520308 6 0 cbr 1000 ------- 0 2.0 0.1 25 126
r 2.528652 6 0 cbr 1000 ------- 0 5.0 0.4 25 129
r 2.540068 6 0 cbr 1000 ------- 0 1.0 0.0 25 125
r 2.54828 6 0 cbr 1000 ------- 0 4.0 0.3 25 128
h 2.58 1 6 cbr 1000 ------- 0 1.0 0.0 26 130
h 2.58 2 6 cbr 1000 ------- 0 2.0 0.1 26 131
h 2.58 3 6 cbr 1000 ------- 0 3.0 0.2 26 132
h 2.58 4 6 cbr 1000 ------- 0 4.0 0.3 26 133
h 2.58 5 6 cbr 1000 ------- 0 5.0 0.4 26 134
+ 2.58 1 6 cbr 1000 ------- 0 1.0 0.0 26 130
- 2.58 1 6 cbr 1000 ------- 0 1.0 0.0 26 130
+ 2.58 2 6 cbr 1000 ------- 0 2.0 0.1 26 131
- 2.58 2 6 cbr 1000 ------- 0 2.0 0.1 26 131
+ 2.58 3 6 cbr 1000 ------- 0 3.0 0.2 26 132
- 2.58 3 6 cbr 1000 ------- 0 3.0 0.2 26 132
+ 2.58 4 6 cbr 1000 ------- 0 4.0 0.3 26 133
- 2.58 4 6 cbr 1000 ------- 0 4.0 0.3 26 133
+ 2.58 5 6 cbr 1000 ------- 0 5.0 0.4 26 134
- 2.58 5 6 cbr 1000 ------- 0 5.0 0.4 26 134
r 2.58876 6 0 cbr 1000 ------- 0 2.0 0.1 26 131
r 2.599796 6 0 cbr 1000 ------- 0 1.0 0.0 26 130
r 2.609164 6 0 cbr 1000 ------- 0 3.0 0.2 26 132
r 2.62314 6 0 cbr 1000 ------- 0 5.0 0.4 26 134
r 2.632356 6 0 cbr 1000 ------- 0 4.0 0.3 26 133
h 2.66 1 6 cbr 1000 ------- 0 1.0 0.0 27 135
h 2.66 2 6 cbr 1000 ------- 0 2.0 0.1 27 136
h 2.66 3 6 cbr 1000 ------- 0 3.0 0.2 27 137
h 2.66 4 6 cbr 1000 ------- 0 4.0 0.3 27 138
h 2.66 5 6 cbr 1000 ------- 0 5.0 0.4 27 139
+ 2.66 1 6 cbr 1000 ------- 0 1.0 0.0 27 135
- 2.66 1 6 cbr 1000 ------- 0 1.0 0.0 27 135
+ 2.66 2 6 cbr 1000 ------- 0 2.0 0.1 27 136
- 2.66 2 6 cbr 1000 ------- 0 2.0 0.1 27 136
+ 2.66 3 6 cbr 1000 ------- 0 3.0 0.2 27 137
- 2.66 3 6 cbr 1000 ------- 0 3.0 0.2 27 137
+ 2.66 4 6 cbr 1000 ------- 0 4.0 0.3 27 138
- 2.66 4 6 cbr 1000 ------- 0 4.0 0.3 27 138
+ 2.66 5 6 cbr 1000 ------- 0 5.0 0.4 27 139
- 2.66 5 6 cbr 1000 ------- 0 5.0 0.4 27 139
r 2.668892 6 0 cbr 1000 ------- 0 4.0 0.3 27 138
r 2.67826 6 0 cbr 1000 ------- 0 5.0 0.4 27 139
r 2.689164 6 0 cbr 1000 ------- 0 2.0 0.1 27 136
r 2.697376 6 0 cbr 1000 ------- 0 1.0 0.0 27 135
r 2.705588 6 0 cbr 1000 ------- 0 3.0 0.2 27 137
h 2.74 1 6 cbr 1000 ------- 0 1.0 0.0 28 140
h 2.74 2 6 cbr 1000 ------- 0 2.0 0.1 28 141
h 2.74 3 6 cbr 1000 ------- 0 3.0 0.2 28 142
h 2.74 4 6 cbr 1000 ------- 0 4.0 0.3 28 143
h 2.74 5 6 cbr 1000 ------- 0 5.0 0.4 28 144
+ 2.74 1 6 cbr 1000 ------- 0 1.0 0.0 28 140
- 2.74 1 6 cbr 1000 ------- 0 1.0 0.0 28 140
+ 2.74 2 6 cbr 1000 ------- 0 2.0 0.1 28 141
- 2.74 2 6 cbr 1000 ------- 0 2.0 0.1 28 141
+ 2.74 3 6 cbr 1000 ------- 0 3.0 0.2 28 142
- 2.74 3 6 cbr 1000 ------- 0 3.0 0.2 28 142
+ 2.74 4 6 cbr 1000 ------- 0 4.0 0.3 28 143
- 2.74 4 6 cbr 1000 ------- 0 4.0 0.3 28 143
+ 2.74 5 6 cbr 1000 ------- 0 5.0 0.4 28 144
- 2.74 5 6 cbr 1000 ------- 0 5.0 0.4 28 144
r 2.74838 6 0 cbr 1000 ------- 0 1.0 0.0 28 140
r 2.756724 6 0 cbr 1000 ------- 0 3.0 0.2 28 142
r 2.76558 6 0 cbr 1000 ------- 0 5.0 0.4 28 144
r 2.775972 6 0 cbr 1000 ------- 0 4.0 0.3 28 143
r 2.784184 6 0 cbr 1000 ------- 0 2.0 0.1 28 141
h 2.82 1 6 cbr 1000 ------- 0 1.0 0.0 29 145
h 2.82 2 6 cbr 1000 ------- 0 2.0 0.1 29 146
h 2.82 3 6 cbr 1000 ------- 0 3.0 0.2 29 147
h 2.82 4 6 cbr 1000 ------- 0 4.0 0.3 29 148
h 2.82 5 6 cbr 1000 ------- 0 5.0 0.4 29 149
+ 2.82 1 6 cbr 1000 ------- 0 1.0 0.0 29 145
- 2.82 1 6 cbr 1000 ------- 0 1.0 0.0 29 145
+ 2.82 2 6 cbr 1000 ------- 0 2.0 0.1 29 146
- 2.82 2 6 cbr 1000 ------- 0 2.0 0.1 29 146
+ 2.82 3 6 cbr 1000 ------- 0 3.0 0.2 29 147
- 2.82 3 6 cbr 1000 ------- 0 3.0 0.2 29 147
+ 2.82 4 6 cbr 1000 ------- 0 4.0 0.3 29 148
- 2.82 4 6 cbr 1000 ------- 0 4.0 0.3 29 148
+ 2.82 5 6 cbr 1000 ------- 0 5.0 0.4 29 149
- 2.82 5 6 cbr 1000 ------- 0 5.0 0.4 29 149
r 2.82838 6 0 cbr 1000 ------- 0 4.0 0.3 29 148
r 2.83826 6 0 cbr 1000 ------- 0 3.0 0.2 29 147
r 2.849808 6 0 cbr 1000 ------- 0 5.0 0.4 29 149
r 2.858664 6 0 cbr 1000 ------- 0 1.0 0.0 29 145
r 2.866876 6 0 cbr 1000 ------- 0 2.0 0.1 29 146
h 2.9 1 6 cbr 1000 ------- 0 1.0 0.0 30 150
h 2.9 2 6 cbr 1000 ------- 0 2.0 0.1 30 151
h 2.9 3 6 cbr 1000 ------- 0 3.0 0.2 30 152
h 2.9 4 6 cbr 1000 ------- 0 4.0 0.3 30 153
h 2.9 5 6 cbr 1000 ------- 0 5.0 0.4 30 154
+ 2.9 1 6 cbr 1000 ------- 0 1.0 0.0 30 150
- 2.9 1 6 cbr 1000 ------- 0 1.0 0.0 30 150
+ 2.9 2 6 cbr 1000 ------- 0 2.0 0.1 30 151
- 2.9 2 6 cbr 1000 ------- 0 2.0 0.1 30 151
+ 2.9 3 6 cbr 1000 ------- 0 3.0 0.2 30 152
- 2.9 3 6 cbr 1000 ------- 0 3.0 0.2 30 152
+ 2.9 4 6 cbr 1000 ------- 0 4.0 0.3 30 153
- 2.9 4 6 cbr 1000 ------- 0 4.0 0.3 30 153
+ 2.9 5 6 cbr 1000 ------- 0 5.0 0.4 30 154
- 2.9 5 6 cbr 1000 ------- 0 5.0 0.4 30 154
r 2.90838 6 0 cbr 1000 ------- 0 4.0 0.3 30 153
r 2.916724 6 0 cbr 1000 ------- 0 2.0 0.1 30 151
r 2.92558 6 0 cbr 1000 ------- 0 1.0 0.0 30 150
r 2.933924 6 0 cbr 1000 ------- 0 5.0 0.4 30 154
r 2.948772 6 0 cbr 1000 ------- 0 3.0 0.2 30 152
h 2.98 1 6 cbr 1000 ------- 0 1.0 0.0 31 155
h 2.98 2 6 cbr 1000 ------- 0 2.0 0.1 31 156
h 2.98 3 6 cbr 1000 ------- 0 3.0 0.2 31 157
h 2.98 4 6 cbr 1000 ------- 0 4.0 0.3 31 158
h 2.98 5 6 cbr 1000 ------- 0 5.0 0.4 31 159
+ 2.98 1 6 cbr 1000 ------- 0 1.0 0.0 31 155
- 2.98 1 6 cbr 1000 ------- 0 1.0 0.0 31 155
+ 2.98 2 6 cbr 1000 ------- 0 2.0 0.1 31 156
- 2.98 2 6 cbr 1000 ------- 0 2.0 0.1 31 156
+ 2.98 3 6 cbr 1000 ------- 0 3.0 0.2 31 157
- 2.98 3 6 cbr 1000 ------- 0 3.0 0.2 31 157
+ 2.98 4 6 cbr 1000 ------- 0 4.0 0.3 31 158
- 2.98 4 6 cbr 1000 ------- 0 4.0 0.3 31 158
+ 2.98 5 6 cbr 1000 ------- 0 5.0 0.4 31 159
- 2.98 5 6 cbr 1000 ------- 0 5.0 0.4 31 159
r 2.988892 6 0 cbr 1000 ------- 0 2.0 0.1 31 156
r 2.99826 6 0 cbr 1000 ------- 0 3.0 0.2 31 157
r 3.011724 6 0 cbr 1000 ------- 0 5.0 0.4 31 159
r 3.026212 6 0 cbr 1000 ------- 0 1.0 0.0 31 155
r 3.034424 6 0 cbr 1000 ------- 0 4.0 0.3 31 158
h 3.06 1 6 cbr 1000 ------- 0 1.0 0.0 32 160
h 3.06 2 6 cbr 1000 ------- 0 2.0 0.1 32 161
h 3.06 3 6 cbr 1000 ------- 0 3.0 0.2 32 162
h 3.06 4 6 cbr 1000 ------- 0 4.0 0.3 32 163
h 3.06 5 6 cbr 1000 ------- 0 5.0 0.4 32 164
+ 3.06 1 6 cbr 1000 ------- 0 1.0 0.0 32 160
- 3.06 1 6 cbr 1000 ------- 0 1.0 0.0 32 160
+ 3.06 2 6 cbr 1000 ------- 0 2.0 0.1 32 161
- 3.06 2 6 cbr 1000 ------- 0 2.0 0.1 32 161
+ 3.06 3 6 cbr 1000 ------- 0 3.0 0.2 32 162
- 3.06 3 6 cbr 1000 ------- 0 3.0 0.2 32 162
+ 3.06 4 6 cbr 1000 ------- 0 4.0 0.3 32 163
- 3.06 4 6 cbr 1000 ------- 0 4.0 0.3 32 163
+ 3.06 5 6 cbr 1000 ------- 0 5.0 0.4 32 164
- 3.06 5 6 cbr 1000 ------- 0 5.0 0.4 32 164
r 3.068892 6 0 cbr 1000 ------- 0 1.0 0.0 32 160
r 3.078772 6 0 cbr 1000 ------- 0 5.0 0.4 32 164
r 3.088652 6 0 cbr 1000 ------- 0 3.0 0.2 32 162
r 3.096996 6 0 cbr 1000 ------- 0 2.0 0.1 32 161
r 3.105208 6 0 cbr 1000 ------- 0 4.0 0.3 32 163
h 3.14 1 6 cbr 1000 ------- 0 1.0 0.0 33 165
h 3.14 2 6 cbr 1000 ------- 0 2.0 0.1 33 166
h 3.14 3 6 cbr 1000 ------- 0 3.0 0.2 33 167
h 3.14 4 6 cbr 1000 ------- 0 4.0 0.3 33 168
h 3.14 5 6 cbr 1000 ------- 0 5.0 0.4 33 169
+ 3.14 1 6 cbr 1000 ------- 0 1.0 0.0 33 165
- 3.14 1 6 cbr 1000 ------- 0 1.0 0.0 33 165
+ 3.14 2 6 cbr 1000 ------- 0 2.0 0.1 33 166
- 3.14 2 6 cbr 1000 ------- 0 2.0 0.1 33 166