h 0.5 1 5 cbr 1000 ------- 0 1.0 0.0 0 0
h 0.5 2 5 cbr 1000 ------- 0 2.0 0.1 0 1
h 0.5 3 5 cbr 1000 ------- 0 3.0 0.2 0 2
h 0.5 4 5 cbr 1000 ------- 0 4.0 0.3 0 3
+ 0.5 1 5 cbr 1000 ------- 0 1.0 0.0 0 0
- 0.5 1 5 cbr 1000 ------- 0 1.0 0.0 0 0
+ 0.5 2 5 cbr 1000 ------- 0 2.0 0.1 0 1
- 0.5 2 5 cbr 1000 ------- 0 2.0 0.1 0 1
+ 0.5 3 5 cbr 1000 ------- 0 3.0 0.2 0 2
- 0.5 3 5 cbr 1000 ------- 0 3.0 0.2 0 2
+ 0.5 4 5 cbr 1000 ------- 0 4.0 0.3 0 3
- 0.5 4 5 cbr 1000 ------- 0 4.0 0.3 0 3
r 0.508248 5 0 cbr 1000 ------- 0 2.0 0.1 0 1
h 0.508889 1 5 cbr 1000 ------- 0 1.0 0.0 1 4
+ 0.508889 1 5 cbr 1000 ------- 0 1.0 0.0 1 4
h 0.516 2 5 cbr 1000 ------- 0 2.0 0.1 1 5
h 0.516 3 5 cbr 1000 ------- 0 3.0 0.2 1 6
h 0.516 4 5 cbr 1000 ------- 0 4.0 0.3 1 7
+ 0.516 2 5 cbr 1000 ------- 0 2.0 0.1 1 5
- 0.516 2 5 cbr 1000 ------- 0 2.0 0.1 1 5
+ 0.516 3 5 cbr 1000 ------- 0 3.0 0.2 1 6
+ 0.516 4 5 cbr 1000 ------- 0 4.0 0.3 1 7
r 0.517748 5 0 cbr 1000 ------- 0 4.0 0.3 0 3
h 0.517778 1 5 cbr 1000 ------- 0 1.0 0.0 2 8
+ 0.517778 1 5 cbr 1000 ------- 0 1.0 0.0 2 8
- 0.51784 4 5 cbr 1000 ------- 0 4.0 0.3 1 7
h 0.526667 1 5 cbr 1000 ------- 0 1.0 0.0 3 9
+ 0.526667 1 5 cbr 1000 ------- 0 1.0 0.0 3 9
r 0.527248 5 0 cbr 1000 ------- 0 2.0 0.1 1 5
h 0.532 2 5 cbr 1000 ------- 0 2.0 0.1 2 10
h 0.532 3 5 cbr 1000 ------- 0 3.0 0.2 2 11
h 0.532 4 5 cbr 1000 ------- 0 4.0 0.3 2 12
+ 0.532 2 5 cbr 1000 ------- 0 2.0 0.1 2 10
- 0.532 2 5 cbr 1000 ------- 0 2.0 0.1 2 10
+ 0.532 3 5 cbr 1000 ------- 0 3.0 0.2 2 11
+ 0.532 4 5 cbr 1000 ------- 0 4.0 0.3 2 12
h 0.535556 1 5 cbr 1000 ------- 0 1.0 0.0 4 13
+ 0.535556 1 5 cbr 1000 ------- 0 1.0 0.0 4 13
r 0.536616 5 0 cbr 1000 ------- 0 4.0 0.3 1 7
- 0.536708 4 5 cbr 1000 ------- 0 4.0 0.3 2 12
h 0.544444 1 5 cbr 1000 ------- 0 1.0 0.0 5 14
+ 0.544444 1 5 cbr 1000 ------- 0 1.0 0.0 5 14
r 0.545832 5 0 cbr 1000 ------- 0 1.0 0.0 0 0
- 0.545924 1 5 cbr 1000 ------- 0 1.0 0.0 1 4
h 0.548 2 5 cbr 1000 ------- 0 2.0 0.1 3 15
h 0.548 3 5 cbr 1000 ------- 0 3.0 0.2 3 16
h 0.548 4 5 cbr 1000 ------- 0 4.0 0.3 3 17
+ 0.548 2 5 cbr 1000 ------- 0 2.0 0.1 3 15
+ 0.548 3 5 cbr 1000 ------- 0 3.0 0.2 3 16
+ 0.548 4 5 cbr 1000 ------- 0 4.0 0.3 3 17
h 0.553333 1 5 cbr 1000 ------- 0 1.0 0.0 6 18
+ 0.553333 1 5 cbr 1000 ------- 0 1.0 0.0 6 18
r 0.555328 5 0 cbr 1000 ------- 0 2.0 0.1 2 10
- 0.55542 2 5 cbr 1000 ------- 0 2.0 0.1 3 15
h 0.562222 1 5 cbr 1000 ------- 0 1.0 0.0 7 19
+ 0.562222 1 5 cbr 1000 ------- 0 1.0 0.0 7 19
h 0.564 2 5 cbr 1000 ------- 0 2.0 0.1 4 20
h 0.564 3 5 cbr 1000 ------- 0 3.0 0.2 4 21
h 0.564 4 5 cbr 1000 ------- 0 4.0 0.3 4 22
+ 0.564 2 5 cbr 1000 ------- 0 2.0 0.1 4 20
+ 0.564 3 5 cbr 1000 ------- 0 3.0 0.2 4 21
+ 0.564 4 5 cbr 1000 ------- 0 4.0 0.3 4 22
r 0.564312 5 0 cbr 1000 ------- 0 2.0 0.1 3 15
- 0.564404 2 5 cbr 1000 ------- 0 2.0 0.1 4 20
h 0.571111 1 5 cbr 1000 ------- 0 1.0 0.0 8 23
+ 0.571111 1 5 cbr 1000 ------- 0 1.0 0.0 8 23
r 0.573168 5 0 cbr 1000 ------- 0 2.0 0.1 4 20
h 0.58 1 5 cbr 1000 ------- 0 1.0 0.0 9 24
+ 0.58 1 5 cbr 1000 ------- 0 1.0 0.0 9 24
h 0.58 2 5 cbr 1000 ------- 0 2.0 0.1 5 25
h 0.58 3 5 cbr 1000 ------- 0 3.0 0.2 5 26
h 0.58 4 5 cbr 1000 ------- 0 4.0 0.3 5 27
+ 0.58 2 5 cbr 1000 ------- 0 2.0 0.1 5 25
- 0.58 2 5 cbr 1000 ------- 0 2.0 0.1 5 25
+ 0.58 3 5 cbr 1000 ------- 0 3.0 0.2 5 26
+ 0.58 4 5 cbr 1000 ------- 0 4.0 0.3 5 27
r 0.583916 5 0 cbr 1000 ------- 0 1.0 0.0 1 4
- 0.584008 1 5 cbr 1000 ------- 0 1.0 0.0 2 8
h 0.588889 1 5 cbr 1000 ------- 0 1.0 0.0 10 28
+ 0.588889 1 5 cbr 1000 ------- 0 1.0 0.0 10 28
r 0.592264 5 0 cbr 1000 ------- 0 4.0 0.3 2 12
- 0.592356 4 5 cbr 1000 ------- 0 4.0 0.3 3 17
h 0.596 2 5 cbr 1000 ------- 0 2.0 0.1 6 29
h 0.596 3 5 cbr 1000 ------- 0 3.0 0.2 6 30
h 0.596 4 5 cbr 1000 ------- 0 4.0 0.3 6 31
+ 0.596 2 5 cbr 1000 ------- 0 2.0 0.1 6 29
+ 0.596 3 5 cbr 1000 ------- 0 3.0 0.2 6 30
+ 0.596 4 5 cbr 1000 ------- 0 4.0 0.3 6 31
h 0.597778 1 5 cbr 1000 ------- 0 1.0 0.0 11 32
+ 0.597778 1 5 cbr 1000 ------- 0 1.0 0.0 11 32
r 0.600604 5 0 cbr 1000 ------- 0 1.0 0.0 2 8
- 0.600696 1 5 cbr 1000 ------- 0 1.0 0.0 3 9
h 0.606667 1 5 cbr 1000 ------- 0 1.0 0.0 12 33
+ 0.606667 1 5 cbr 1000 ------- 0 1.0 0.0 12 33
r 0.609076 5 0 cbr 1000 ------- 0 1.0 0.0 3 9
- 0.609168 1 5 cbr 1000 ------- 0 1.0 0.0 4 13
h 0.612 2 5 cbr 1000 ------- 0 2.0 0.1 7 34
h 0.612 3 5 cbr 1000 ------- 0 3.0 0.2 7 35
h 0.612 4 5 cbr 1000 ------- 0 4.0 0.3 7 36
+ 0.612 2 5 cbr 1000 ------- 0 2.0 0.1 7 34
+ 0.612 3 5 cbr 1000 ------- 0 3.0 0.2 7 35
+ 0.612 4 5 cbr 1000 ------- 0 4.0 0.3 7 36
h 0.615556 1 5 cbr 1000 ------- 0 1.0 0.0 13 37
+ 0.615556 1 5 cbr 1000 ------- 0 1.0 0.0 13 37
r 0.617932 5 0 cbr 1000 ------- 0 1.0 0.0 4 13
- 0.618024 1 5 cbr 1000 ------- 0 1.0 0.0 5 14
h 0.624444 1 5 cbr 1000 ------- 0 1.0 0.0 14 38
+ 0.624444 1 5 cbr 1000 ------- 0 1.0 0.0 14 38
r 0.626788 5 0 cbr 1000 ------- 0 1.0 0.0 5 14
- 0.62688 1 5 cbr 1000 ------- 0 1.0 0.0 6 18
h 0.628 2 5 cbr 1000 ------- 0 2.0 0.1 8 39
h 0.628 3 5 cbr 1000 ------- 0 3.0 0.2 8 40
h 0.628 4 5 cbr 1000 ------- 0 4.0 0.3 8 41
+ 0.628 2 5 cbr 1000 ------- 0 2.0 0.1 8 39
+ 0.628 3 5 cbr 1000 ------- 0 3.0 0.2 8 40
+ 0.628 4 5 cbr 1000 ------- 0 4.0 0.3 8 41
h 0.633333 1 5 cbr 1000 ------- 0 1.0 0.0 15 42
+ 0.633333 1 5 cbr 1000 ------- 0 1.0 0.0 15 42
r 0.635132 5 0 cbr 1000 ------- 0 1.0 0.0 6 18
- 0.635224 1 5 cbr 1000 ------- 0 1.0 0.0 7 19
h 0.642222 1 5 cbr 1000 ------- 0 1.0 0.0 16 43
+ 0.642222 1 5 cbr 1000 ------- 0 1.0 0.0 16 43
r 0.643988 5 0 cbr 1000 ------- 0 1.0 0.0 7 19
h 0.644 2 5 cbr 1000 ------- 0 2.0 0.1 9 44
h 0.644 3 5 cbr 1000 ------- 0 3.0 0.2 9 45
h 0.644 4 5 cbr 1000 ------- 0 4.0 0.3 9 46
+ 0.644 2 5 cbr 1000 ------- 0 2.0 0.1 9 44
+ 0.644 3 5 cbr 1000 ------- 0 3.0 0.2 9 45
+ 0.644 4 5 cbr 1000 ------- 0 4.0 0.3 9 46
- 0.64408 1 5 cbr 1000 ------- 0 1.0 0.0 8 23
h 0.651111 1 5 cbr 1000 ------- 0 1.0 0.0 17 47
+ 0.651111 1 5 cbr 1000 ------- 0 1.0 0.0 17 47
r 0.652196 5 0 cbr 1000 ------- 0 1.0 0.0 8 23
- 0.652288 1 5 cbr 1000 ------- 0 1.0 0.0 9 24
h 0.66 1 5 cbr 1000 ------- 0 1.0 0.0 18 48
+ 0.66 1 5 cbr 1000 ------- 0 1.0 0.0 18 48
h 0.66 2 5 cbr 1000 ------- 0 2.0 0.1 10 49
h 0.66 3 5 cbr 1000 ------- 0 3.0 0.2 10 50
h 0.66 4 5 cbr 1000 ------- 0 4.0 0.3 10 51
+ 0.66 2 5 cbr 1000 ------- 0 2.0 0.1 10 49
+ 0.66 3 5 cbr 1000 ------- 0 3.0 0.2 10 50
+ 0.66 4 5 cbr 1000 ------- 0 4.0 0.3 10 51
r 0.66054 5 0 cbr 1000 ------- 0 1.0 0.0 9 24
- 0.660632 1 5 cbr 1000 ------- 0 1.0 0.0 10 28
r 0.668748 5 0 cbr 1000 ------- 0 1.0 0.0 10 28
- 0.66884 1 5 cbr 1000 ------- 0 1.0 0.0 11 32
h 0.668889 1 5 cbr 1000 ------- 0 1.0 0.0 19 52
+ 0.668889 1 5 cbr 1000 ------- 0 1.0 0.0 19 52
h 0.676 2 5 cbr 1000 ------- 0 2.0 0.1 11 53
h 0.676 3 5 cbr 1000 ------- 0 3.0 0.2 11 54
h 0.676 4 5 cbr 1000 ------- 0 4.0 0.3 11 55
+ 0.676 2 5 cbr 1000 ------- 0 2.0 0.1 11 53
+ 0.676 3 5 cbr 1000 ------- 0 3.0 0.2 11 54
+ 0.676 4 5 cbr 1000 ------- 0 4.0 0.3 11 55
r 0.676956 5 0 cbr 1000 ------- 0 1.0 0.0 11 32
- 0.677048 1 5 cbr 1000 ------- 0 1.0 0.0 12 33
h 0.677778 1 5 cbr 1000 ------- 0 1.0 0.0 20 56
+ 0.677778 1 5 cbr 1000 ------- 0 1.0 0.0 20 56
r 0.685812 5 0 cbr 1000 ------- 0 1.0 0.0 12 33
- 0.685904 1 5 cbr 1000 ------- 0 1.0 0.0 13 37
h 0.686667 1 5 cbr 1000 ------- 0 1.0 0.0 21 57
+ 0.686667 1 5 cbr 1000 ------- 0 1.0 0.0 21 57
h 0.692 2 5 cbr 1000 ------- 0 2.0 0.1 12 58
h 0.692 3 5 cbr 1000 ------- 0 3.0 0.2 12 59
h 0.692 4 5 cbr 1000 ------- 0 4.0 0.3 12 60
+ 0.692 2 5 cbr 1000 ------- 0 2.0 0.1 12 58
+ 0.692 3 5 cbr 1000 ------- 0 3.0 0.2 12 59
+ 0.692 4 5 cbr 1000 ------- 0 4.0 0.3 12 60
r 0.694668 5 0 cbr 1000 ------- 0 1.0 0.0 13 37
- 0.69476 1 5 cbr 1000 ------- 0 1.0 0.0 14 38
h 0.695556 1 5 cbr 1000 ------- 0 1.0 0.0 22 61
+ 0.695556 1 5 cbr 1000 ------- 0 1.0 0.0 22 61
r 0.702876 5 0 cbr 1000 ------- 0 1.0 0.0 14 38
- 0.702968 1 5 cbr 1000 ------- 0 1.0 0.0 15 42
h 0.704444 1 5 cbr 1000 ------- 0 1.0 0.0 23 62
+ 0.704444 1 5 cbr 1000 ------- 0 1.0 0.0 23 62
h 0.708 2 5 cbr 1000 ------- 0 2.0 0.1 13 63
h 0.708 3 5 cbr 1000 ------- 0 3.0 0.2 13 64
h 0.708 4 5 cbr 1000 ------- 0 4.0 0.3 13 65
+ 0.708 2 5 cbr 1000 ------- 0 2.0 0.1 13 63
+ 0.708 3 5 cbr 1000 ------- 0 3.0 0.2 13 64
+ 0.708 4 5 cbr 1000 ------- 0 4.0 0.3 13 65
r 0.711084 5 0 cbr 1000 ------- 0 1.0 0.0 15 42
- 0.711176 1 5 cbr 1000 ------- 0 1.0 0.0 16 43
h 0.713333 1 5 cbr 1000 ------- 0 1.0 0.0 24 66
+ 0.713333 1 5 cbr 1000 ------- 0 1.0 0.0 24 66
r 0.71994 5 0 cbr 1000 ------- 0 1.0 0.0 16 43
- 0.720032 1 5 cbr 1000 ------- 0 1.0 0.0 17 47
h 0.722222 1 5 cbr 1000 ------- 0 1.0 0.0 25 67
+ 0.722222 1 5 cbr 1000 ------- 0 1.0 0.0 25 67
h 0.724 2 5 cbr 1000 ------- 0 2.0 0.1 14 68
h 0.724 3 5 cbr 1000 ------- 0 3.0 0.2 14 69
h 0.724 4 5 cbr 1000 ------- 0 4.0 0.3 14 70
+ 0.724 2 5 cbr 1000 ------- 0 2.0 0.1 14 68
+ 0.724 3 5 cbr 1000 ------- 0 3.0 0.2 14 69
+ 0.724 4 5 cbr 1000 ------- 0 4.0 0.3 14 70
r 0.728148 5 0 cbr 1000 ------- 0 1.0 0.0 17 47
- 0.72824 1 5 cbr 1000 ------- 0 1.0 0.0 18 48
h 0.731111 1 5 cbr 1000 ------- 0 1.0 0.0 26 71
+ 0.731111 1 5 cbr 1000 ------- 0 1.0 0.0 26 71
r 0.736356 5 0 cbr 1000 ------- 0 1.0 0.0 18 48
- 0.736448 1 5 cbr 1000 ------- 0 1.0 0.0 19 52
h 0.74 1 5 cbr 1000 ------- 0 1.0 0.0 27 72
+ 0.74 1 5 cbr 1000 ------- 0 1.0 0.0 27 72
h 0.74 2 5 cbr 1000 ------- 0 2.0 0.1 15 73
h 0.74 3 5 cbr 1000 ------- 0 3.0 0.2 15 74
h 0.74 4 5 cbr 1000 ------- 0 4.0 0.3 15 75
+ 0.74 2 5 cbr 1000 ------- 0 2.0 0.1 15 73
+ 0.74 3 5 cbr 1000 ------- 0 3.0 0.2 15 74
+ 0.74 4 5 cbr 1000 ------- 0 4.0 0.3 15 75
r 0.744564 5 0 cbr 1000 ------- 0 1.0 0.0 19 52
- 0.744656 1 5 cbr 1000 ------- 0 1.0 0.0 20 56
h 0.748889 1 5 cbr 1000 ------- 0 1.0 0.0 28 76
+ 0.748889 1 5 cbr 1000 ------- 0 1.0 0.0 28 76
r 0.752772 5 0 cbr 1000 ------- 0 1.0 0.0 20 56
- 0.752864 1 5 cbr 1000 ------- 0 1.0 0.0 21 57
h 0.756 2 5 cbr 1000 ------- 0 2.0 0.1 16 77
h 0.756 3 5 cbr 1000 ------- 0 3.0 0.2 16 78
h 0.756 4 5 cbr 1000 ------- 0 4.0 0.3 16 79
+ 0.756 2 5 cbr 1000 ------- 0 2.0 0.1 16 77
+ 0.756 3 5 cbr 1000 ------- 0 3.0 0.2 16 78
+ 0.756 4 5 cbr 1000 ------- 0 4.0 0.3 16 79
h 0.757778 1 5 cbr 1000 ------- 0 1.0 0.0 29 80
+ 0.757778 1 5 cbr 1000 ------- 0 1.0 0.0 29 80
r 0.76098 5 0 cbr 1000 ------- 0 1.0 0.0 21 57
- 0.761072 1 5 cbr 1000 ------- 0 1.0 0.0 22 61
h 0.766667 1 5 cbr 1000 ------- 0 1.0 0.0 30 81
+ 0.766667 1 5 cbr 1000 ------- 0 1.0 0.0 30 81
r 0.769188 5 0 cbr 1000 ------- 0 1.0 0.0 22 61
- 0.76928 1 5 cbr 1000 ------- 0 1.0 0.0 23 62
h 0.772 2 5 cbr 1000 ------- 0 2.0 0.1 17 82
h 0.772 3 5 cbr 1000 ------- 0 3.0 0.2 17 83
h 0.772 4 5 cbr 1000 ------- 0 4.0 0.3 17 84
+ 0.772 2 5 cbr 1000 ------- 0 2.0 0.1 17 82
+ 0.772 3 5 cbr 1000 ------- 0 3.0 0.2 17 83
+ 0.772 4 5 cbr 1000 ------- 0 4.0 0.3 17 84
h 0.775556 1 5 cbr 1000 ------- 0 1.0 0.0 31 85
+ 0.775556 1 5 cbr 1000 ------- 0 1.0 0.0 31 85
r 0.777532 5 0 cbr 1000 ------- 0 1.0 0.0 23 62
- 0.777624 1 5 cbr 1000 ------- 0 1.0 0.0 24 66
h 0.784444 1 5 cbr 1000 ------- 0 1.0 0.0 32 86
+ 0.784444 1 5 cbr 1000 ------- 0 1.0 0.0 32 86
r 0.78574 5 0 cbr 1000 ------- 0 1.0 0.0 24 66
- 0.785832 1 5 cbr 1000 ------- 0 1.0 0.0 25 67
h 0.788 2 5 cbr 1000 ------- 0 2.0 0.1 18 87
h 0.788 3 5 cbr 1000 ------- 0 3.0 0.2 18 88
h 0.788 4 5 cbr 1000 ------- 0 4.0 0.3 18 89
+ 0.788 2 5 cbr 1000 ------- 0 2.0 0.1 18 87
+ 0.788 3 5 cbr 1000 ------- 0 3.0 0.2 18 88
+ 0.788 4 5 cbr 1000 ------- 0 4.0 0.3 18 89
h 0.793333 1 5 cbr 1000 ------- 0 1.0 0.0 33 90
+ 0.793333 1 5 cbr 1000 ------- 0 1.0 0.0 33 90
r 0.793948 5 0 cbr 1000 ------- 0 1.0 0.0 25 67
- 0.79404 1 5 cbr 1000 ------- 0 1.0 0.0 26 71
r 0.802156 5 0 cbr 1000 ------- 0 1.0 0.0 26 71
h 0.802222 1 5 cbr 1000 ------- 0 1.0 0.0 34 91
+ 0.802222 1 5 cbr 1000 ------- 0 1.0 0.0 34 91
- 0.802248 1 5 cbr 1000 ------- 0 1.0 0.0 27 72
h 0.804 2 5 cbr 1000 ------- 0 2.0 0.1 19 92
h 0.804 3 5 cbr 1000 ------- 0 3.0 0.2 19 93
h 0.804 4 5 cbr 1000 ------- 0 4.0 0.3 19 94
+ 0.804 2 5 cbr 1000 ------- 0 2.0 0.1 19 92
+ 0.804 3 5 cbr 1000 ------- 0 3.0 0.2 19 93
+ 0.804 4 5 cbr 1000 ------- 0 4.0 0.3 19 94
r 0.811012 5 0 cbr 1000 ------- 0 1.0 0.0 27 72
- 0.811104 1 5 cbr 1000 ------- 0 1.0 0.0 28 76
h 0.811111 1 5 cbr 1000 ------- 0 1.0 0.0 35 95
+ 0.811111 1 5 cbr 1000 ------- 0 1.0 0.0 35 95
r 0.81922 5 0 cbr 1000 ------- 0 1.0 0.0 28 76
- 0.819312 1 5 cbr 1000 ------- 0 1.0 0.0 29 80
h 0.82 1 5 cbr 1000 ------- 0 1.0 0.0 36 96
+ 0.82 1 5 cbr 1000 ------- 0 1.0 0.0 36 96
h 0.82 2 5 cbr 1000 ------- 0 2.0 0.1 20 97
h 0.82 3 5 cbr 1000 ------- 0 3.0 0.2 20 98
h 0.82 4 5 cbr 1000 ------- 0 4.0 0.3 20 99
+ 0.82 2 5 cbr 1000 ------- 0 2.0 0.1 20 97
+ 0.82 3 5 cbr 1000 ------- 0 3.0 0.2 20 98
+ 0.82 4 5 cbr 1000 ------- 0 4.0 0.3 20 99
r 0.827428 5 0 cbr 1000 ------- 0 1.0 0.0 29 80
- 0.82752 1 5 cbr 1000 ------- 0 1.0 0.0 30 81
h 0.828889 1 5 cbr 1000 ------- 0 1.0 0.0 37 100
+ 0.828889 1 5 cbr 1000 ------- 0 1.0 0.0 37 100
r 0.835636 5 0 cbr 1000 ------- 0 1.0 0.0 30 81
- 0.835728 1 5 cbr 1000 ------- 0 1.0 0.0 31 85
h 0.836 2 5 cbr 1000 ------- 0 2.0 0.1 21 101
h 0.836 3 5 cbr 1000 ------- 0 3.0 0.2 21 102
h 0.836 4 5 cbr 1000 ------- 0 4.0 0.3 21 103
+ 0.836 2 5 cbr 1000 ------- 0 2.0 0.1 21 101
+ 0.836 3 5 cbr 1000 ------- 0 3.0 0.2 21 102
+ 0.836 4 5 cbr 1000 ------- 0 4.0 0.3 21 103
h 0.837778 1 5 cbr 1000 ------- 0 1.0 0.0 38 104
+ 0.837778 1 5 cbr 1000 ------- 0 1.0 0.0 38 104
r 0.84398 5 0 cbr 1000 ------- 0 1.0 0.0 31 85
- 0.844072 1 5 cbr 1000 ------- 0 1.0 0.0 32 86
h 0.846667 1 5 cbr 1000 ------- 0 1.0 0.0 39 105
+ 0.846667 1 5 cbr 1000 ------- 0 1.0 0.0 39 105
h 0.852 2 5 cbr 1000 ------- 0 2.0 0.1 22 106
h 0.852 3 5 cbr 1000 ------- 0 3.0 0.2 22 107
h 0.852 4 5 cbr 1000 ------- 0 4.0 0.3 22 108
+ 0.852 2 5 cbr 1000 ------- 0 2.0 0.1 22 106
+ 0.852 3 5 cbr 1000 ------- 0 3.0 0.2 22 107
+ 0.852 4 5 cbr 1000 ------- 0 4.0 0.3 22 108
r 0.852188 5 0 cbr 1000 ------- 0 1.0 0.0 32 86
- 0.85228 1 5 cbr 1000 ------- 0 1.0 0.0 33 90
h 0.855556 1 5 cbr 1000 ------- 0 1.0 0.0 40 109
+ 0.855556 1 5 cbr 1000 ------- 0 1.0 0.0 40 109
r 0.860396 5 0 cbr 1000 ------- 0 1.0 0.0 33 90
- 0.860488 1 5 cbr 1000 ------- 0 1.0 0.0 34 91
h 0.864444 1 5 cbr 1000 ------- 0 1.0 0.0 41 110
+ 0.864444 1 5 cbr 1000 ------- 0 1.0 0.0 41 110
h 0.868 2 5 cbr 1000 ------- 0 2.0 0.1 23 111
h 0.868 3 5 cbr 1000 ------- 0 3.0 0.2 23 112
h 0.868 4 5 cbr 1000 ------- 0 4.0 0.3 23 113
+ 0.868 2 5 cbr 1000 ------- 0 2.0 0.1 23 111
+ 0.868 3 5 cbr 1000 ------- 0 3.0 0.2 23 112
+ 0.868 4 5 cbr 1000 ------- 0 4.0 0.3 23 113
r 0.86874 5 0 cbr 1000 ------- 0 1.0 0.0 34 91
- 0.868832 1 5 cbr 1000 ------- 0 1.0 0.0 35 95
h 0.873333 1 5 cbr 1000 ------- 0 1.0 0.0 42 114
+ 0.873333 1 5 cbr 1000 ------- 0 1.0 0.0 42 114
r 0.876948 5 0 cbr 1000 ------- 0 1.0 0.0 35 95
- 0.87704 1 5 cbr 1000 ------- 0 1.0 0.0 36 96
h 0.882222 1 5 cbr 1000 ------- 0 1.0 0.0 43 115
+ 0.882222 1 5 cbr 1000 ------- 0 1.0 0.0 43 115
h 0.884 2 5 cbr 1000 ------- 0 2.0 0.1 24 116
h 0.884 3 5 cbr 1000 ------- 0 3.0 0.2 24 117
h 0.884 4 5 cbr 1000 ------- 0 4.0 0.3 24 118
+ 0.884 2 5 cbr 1000 ------- 0 2.0 0.1 24 116
+ 0.884 3 5 cbr 1000 ------- 0 3.0 0.2 24 117
+ 0.884 4 5 cbr 1000 ------- 0 4.0 0.3 24 118
r 0.885156 5 0 cbr 1000 ------- 0 1.0 0.0 36 96
- 0.885248 1 5 cbr 1000 ------- 0 1.0 0.0 37 100
h 0.891111 1 5 cbr 1000 ------- 0 1.0 0.0 44 119
+ 0.891111 1 5 cbr 1000 ------- 0 1.0 0.0 44 119
r 0.8935 5 0 cbr 1000 ------- 0 1.0 0.0 37 100
- 0.893592 1 5 cbr 1000 ------- 0 1.0 0.0 38 104
h 0.9 1 5 cbr 1000 ------- 0 1.0 0.0 45 120
+ 0.9 1 5 cbr 1000 ------- 0 1.0 0.0 45 120
h 0.9 2 5 cbr 1000 ------- 0 2.0 0.1 25 121
h 0.9 3 5 cbr 1000 ------- 0 3.0 0.2 25 122
h 0.9 4 5 cbr 1000 ------- 0 4.0 0.3 25 123
+ 0.9 2 5 cbr 1000 ------- 0 2.0 0.1 25 121
+ 0.9 3 5 cbr 1000 ------- 0 3.0 0.2 25 122
+ 0.9 4 5 cbr 1000 ------- 0 4.0 0.3 25 123
r 0.901708 5 0 cbr 1000 ------- 0 1.0 0.0 38 104
- 0.9018 1 5 cbr 1000 ------- 0 1.0 0.0 39 105
h 0.908889 1 5 cbr 1000 ------- 0 1.0 0.0 46 124
+ 0.908889 1 5 cbr 1000 ------- 0 1.0 0.0 46 124
r 0.909916 5 0 cbr 1000 ------- 0 1.0 0.0 39 105
- 0.910008 1 5 cbr 1000 ------- 0 1.0 0.0 40 109
h 0.916 2 5 cbr 1000 ------- 0 2.0 0.1 26 125
h 0.916 3 5 cbr 1000 ------- 0 3.0 0.2 26 126
h 0.916 4 5 cbr 1000 ------- 0 4.0 0.3 26 127
+ 0.916 2 5 cbr 1000 ------- 0 2.0 0.1 26 125
+ 0.916 3 5 cbr 1000 ------- 0 3.0 0.2 26 126
+ 0.916 4 5 cbr 1000 ------- 0 4.0 0.3 26 127
h 0.917778 1 5 cbr 1000 ------- 0 1.0 0.0 47 128
+ 0.917778 1 5 cbr 1000 ------- 0 1.0 0.0 47 128
r 0.918124 5 0 cbr 1000 ------- 0 1.0 0.0 40 109
- 0.918216 1 5 cbr 1000 ------- 0 1.0 0.0 41 110
r 0.926332 5 0 cbr 1000 ------- 0 1.0 0.0 41 110
- 0.926424 1 5 cbr 1000 ------- 0 1.0 0.0 42 114
h 0.926667 1 5 cbr 1000 ------- 0 1.0 0.0 48 129
+ 0.926667 1 5 cbr 1000 ------- 0 1.0 0.0 48 129
h 0.932 2 5 cbr 1000 ------- 0 2.0 0.1 27 130
h 0.932 3 5 cbr 1000 ------- 0 3.0 0.2 27 131
h 0.932 4 5 cbr 1000 ------- 0 4.0 0.3 27 132
+ 0.932 2 5 cbr 1000 ------- 0 2.0 0.1 27 130
+ 0.932 3 5 cbr 1000 ------- 0 3.0 0.2 27 131
+ 0.932 4 5 cbr 1000 ------- 0 4.0 0.3 27 132
r 0.93454 5 0 cbr 1000 ------- 0 1.0 0.0 42 114
- 0.934632 1 5 cbr 1000 ------- 0 1.0 0.0 43 115
h 0.935556 1 5 cbr 1000 ------- 0 1.0 0.0 49 133
+ 0.935556 1 5 cbr 1000 ------- 0 1.0 0.0 49 133
r 0.942748 5 0 cbr 1000 ------- 0 1.0 0.0 43 115
- 0.94284 1 5 cbr 1000 ------- 0 1.0 0.0 44 119
h 0.944444 1 5 cbr 1000 ------- 0 1.0 0.0 50 134
+ 0.944444 1 5 cbr 1000 ------- 0 1.0 0.0 50 134
h 0.948 2 5 cbr 1000 ------- 0 2.0 0.1 28 135
h 0.948 3 5 cbr 1000 ------- 0 3.0 0.2 28 136
h 0.948 4 5 cbr 1000 ------- 0 4.0 0.3 28 137
+ 0.948 2 5 cbr 1000 ------- 0 2.0 0.1 28 135
+ 0.948 3 5 cbr 1000 ------- 0 3.0 0.2 28 136
+ 0.948 4 5 cbr 1000 ------- 0 4.0 0.3 28 137
r 0.950956 5 0 cbr 1000 ------- 0 1.0 0.0 44 119
- 0.951048 1 5 cbr 1000 ------- 0 1.0 0.0 45 120
h 0.953333 1 5 cbr 1000 ------- 0 1.0 0.0 51 138
+ 0.953333 1 5 cbr 1000 ------- 0 1.0 0.0 51 138
r 0.9593 5 0 cbr 1000 ------- 0 1.0 0.0 45 120
- 0.959392 1 5 cbr 1000 ------- 0 1.0 0.0 46 124
h 0.962222 1 5 cbr 1000 ------- 0 1.0 0.0 52 139
+ 0.962222 1 5 cbr 1000 ------- 0 1.0 0.0 52 139
h 0.964 2 5 cbr 1000 ------- 0 2.0 0.1 29 140
h 0.964 3 5 cbr 1000 ------- 0 3.0 0.2 29 141
h 0.964 4 5 cbr 1000 ------- 0 4.0 0.3 29 142
+ 0.964 2 5 cbr 1000 ------- 0 2.0 0.1 29 140
+ 0.964 3 5 cbr 1000 ------- 0 3.0 0.2 29 141
+ 0.964 4 5 cbr 1000 ------- 0 4.0 0.3 29 142
r 0.967508 5 0 cbr 1000 ------- 0 1.0 0.0 46 124
- 0.9676 1 5 cbr 1000 ------- 0 1.0 0.0 47 128
h 0.971111 1 5 cbr 1000 ------- 0 1.0 0.0 53 143
+ 0.971111 1 5 cbr 1000 ------- 0 1.0 0.0 53 143
r 0.975716 5 0 cbr 1000 ------- 0 1.0 0.0 47 128
- 0.975808 1 5 cbr 1000 ------- 0 1.0 0.0 48 129
h 0.98 1 5 cbr 1000 ------- 0 1.0 0.0 54 144
+ 0.98 1 5 cbr 1000 ------- 0 1.0 0.0 54 144
h 0.98 2 5 cbr 1000 ------- 0 2.0 0.1 30 145
h 0.98 3 5 cbr 1000 ------- 0 3.0 0.2 30 146
h 0.98 4 5 cbr 1000 ------- 0 4.0 0.3 30 147
+ 0.98 2 5 cbr 1000 ------- 0 2.0 0.1 30 145
+ 0.98 3 5 cbr 1000 ------- 0 3.0 0.2 30 146
+ 0.98 4 5 cbr 1000 ------- 0 4.0 0.3 30 147
r 0.983924 5 0 cbr 1000 ------- 0 1.0 0.0 48 129
- 0.984016 1 5 cbr 1000 ------- 0 1.0 0.0 49 133
h 0.988889 1 5 cbr 1000 ------- 0 1.0 0.0 55 148
+ 0.988889 1 5 cbr 1000 ------- 0 1.0 0.0 55 148
r 0.992132 5 0 cbr 1000 ------- 0 1.0 0.0 49 133
- 0.992224 1 5 cbr 1000 ------- 0 1.0 0.0 50 134
h 0.996 2 5 cbr 1000 ------- 0 2.0 0.1 31 149
h 0.996 3 5 cbr 1000 ------- 0 3.0 0.2 31 150
h 0.996 4 5 cbr 1000 ------- 0 4.0 0.3 31 151
+ 0.996 2 5 cbr 1000 ------- 0 2.0 0.1 31 149
+ 0.996 3 5 cbr 1000 ------- 0 3.0 0.2 31 150
+ 0.996 4 5 cbr 1000 ------- 0 4.0 0.3 31 151
h 0.997778 1 5 cbr 1000 ------- 0 1.0 0.0 56 152
+ 0.997778 1 5 cbr 1000 ------- 0 1.0 0.0 56 152
r 1.00034 5 0 cbr 1000 ------- 0 1.0 0.0 50 134
- 1.000432 1 5 cbr 1000 ------- 0 1.0 0.0 51 138
h 1.006667 1 5 cbr 1000 ------- 0 1.0 0.0 57 153
+ 1.006667 1 5 cbr 1000 ------- 0 1.0 0.0 57 153
r 1.008548 5 0 cbr 1000 ------- 0 1.0 0.0 51 138
- 1.00864 1 5 cbr 1000 ------- 0 1.0 0.0 52 139
h 1.012 2 5 cbr 1000 ------- 0 2.0 0.1 32 154
h 1.012 3 5 cbr 1000 ------- 0 3.0 0.2 32 155
h 1.012 4 5 cbr 1000 ------- 0 4.0 0.3 32 156
+ 1.012 2 5 cbr 1000 ------- 0 2.0 0.1 32 154
+ 1.012 3 5 cbr 1000 ------- 0 3.0 0.2 32 155
+ 1.012 4 5 cbr 1000 ------- 0 4.0 0.3 32 156
h 1.015556 1 5 cbr 1000 ------- 0 1.0 0.0 58 157
+ 1.015556 1 5 cbr 1000 ------- 0 1.0 0.0 58 157
r 1.016756 5 0 cbr 1000 ------- 0 1.0 0.0 52 139
- 1.016848 1 5 cbr 1000 ------- 0 1.0 0.0 53 143
h 1.024444 1 5 cbr 1000 ------- 0 1.0 0.0 59 158
+ 1.024444 1 5 cbr 1000 ------- 0 1.0 0.0 59 158
r 1.024964 5 0 cbr 1000 ------- 0 1.0 0.0 53 143
- 1.025056 1 5 cbr 1000 ------- 0 1.0 0.0 54 144
h 1.028 2 5 cbr 1000 ------- 0 2.0 0.1 33 159
h 1.028 3 5 cbr 1000 ------- 0 3.0 0.2 33 160
h 1.028 4 5 cbr 1000 ------- 0 4.0 0.3 33 161
+ 1.028 2 5 cbr 1000 ------- 0 2.0 0.1 33 159
+ 1.028 3 5 cbr 1000 ------- 0 3.0 0.2 33 160
+ 1.028 4 5 cbr 1000 ------- 0 4.0 0.3 33 161
r 1.033172 5 0 cbr 1000 ------- 0 1.0 0.0 54 144
- 1.033264 1 5 cbr 1000 ------- 0 1.0 0.0 55 148
h 1.033333 1 5 cbr 1000 ------- 0 1.0 0.0 60 162
+ 1.033333 1 5 cbr 1000 ------- 0 1.0 0.0 60 162
r 1.042028 5 0 cbr 1000 ------- 0 1.0 0.0 55 148
- 1.04212 1 5 cbr 1000 ------- 0 1.0 0.0 56 152
h 1.042222 1 5 cbr 1000 ------- 0 1.0 0.0 61 163
+ 1.042222 1 5 cbr 1000 ------- 0 1.0 0.0 61 163
h 1.044 2 5 cbr 1000 ------- 0 2.0 0.1 34 164
h 1.044 3 5 cbr 1000 ------- 0 3.0 0.2 34 165
h 1.044 4 5 cbr 1000 ------- 0 4.0 0.3 34 166
+ 1.044 2 5 cbr 1000 ------- 0 2.0 0.1 34 164
+ 1.044 3 5 cbr 1000 ------- 0 3.0 0.2 34 165
+ 1.044 4 5 cbr 1000 ------- 0 4.0 0.3 34 166
r 1.050236 5 0 cbr 1000 ------- 0 1.0 0.0 56 152
- 1.050328 1 5 cbr 1000 ------- 0 1.0 0.0 57 153
h 1.051111 1 5 cbr 1000 ------- 0 1.0 0.0 62 167
+ 1.051111 1 5 cbr 1000 ------- 0 1.0 0.0 62 167
r 1.058444 5 0 cbr 1000 ------- 0 1.0 0.0 57 153
- 1.058536 1 5 cbr 1000 ------- 0 1.0 0.0 58 157
h 1.06 1 5 cbr 1000 ------- 0 1.0 0.0 63 168
+ 1.06 1 5 cbr 1000 ------- 0 1.0 0.0 63 168
h 1.06 2 5 cbr 1000 ------- 0 2.0 0.1 35 169
h 1.06 3 5 cbr 1000 ------- 0 3.0 0.2 35 170
h 1.06 4 5 cbr 1000 ------- 0 4.0 0.3 35 171
+ 1.06 2 5 cbr 1000 ------- 0 2.0 0.1 35 169
+ 1.06 3 5 cbr 1000 ------- 0 3.0 0.2 35 170
+ 1.06 4 5 cbr 1000 ------- 0 4.0 0.3 35 171
r 1.066652 5 0 cbr 1000 ------- 0 1.0 0.0 58 157
- 1.066744 1 5 cbr 1000 ------- 0 1.0 0.0 59 158
h 1.068889 1 5 cbr 1000 ------- 0 1.0 0.0 64 172
+ 1.068889 1 5 cbr 1000 ------- 0 1.0 0.0 64 172
r 1.075508 5 0 cbr 1000 ------- 0 1.0 0.0 59 158
- 1.0756 1 5 cbr 1000 ------- 0 1.0 0.0 60 162
h 1.076 2 5 cbr 1000 ------- 0 2.0 0.1 36 173
h 1.076 3 5 cbr 1000 ------- 0 3.0 0.2 36 174
h 1.076 4 5 cbr 1000 ------- 0 4.0 0.3 36 175
+ 1.076 2 5 cbr 1000 ------- 0 2.0 0.1 36 173
+ 1.076 3 5 cbr 1000 ------- 0 3.0 0.2 36 174
+ 1.076 4 5 cbr 1000 ------- 0 4.0 0.3 36 175
h 1.077778 1 5 cbr 1000 ------- 0 1.0 0.0 65 176
+ 1.077778 1 5 cbr 1000 ------- 0 1.0 0.0 65 176
r 1.083852 5 0 cbr 1000 ------- 0 1.0 0.0 60 162
- 1.083944 1 5 cbr 1000 ------- 0 1.0 0.0 61 163
h 1.086667 1 5 cbr 1000 ------- 0 1.0 0.0 66 177
+ 1.086667 1 5 cbr 1000 ------- 0 1.0 0.0 66 177
h 1.092 2 5 cbr 1000 ------- 0 2.0 0.1 37 178
h 1.092 3 5 cbr 1000 ------- 0 3.0 0.2 37 179
h 1.092 4 5 cbr 1000 ------- 0 4.0 0.3 37 180
+ 1.092 2 5 cbr 1000 ------- 0 2.0 0.1 37 178
+ 1.092 3 5 cbr 1000 ------- 0 3.0 0.2 37 179
+ 1.092 4 5 cbr 1000 ------- 0 4.0 0.3 37 180
r 1.09206 5 0 cbr 1000 ------- 0 1.0 0.0 61 163
- 1.092152 1 5 cbr 1000 ------- 0 1.0 0.0 62 167
h 1.095556 1 5 cbr 1000 ------- 0 1.0 0.0 67 181
+ 1.095556 1 5 cbr 1000 ------- 0 1.0 0.0 67 181
r 1.100268 5 0 cbr 1000 ------- 0 1.0 0.0 62 167
- 1.10036 1 5 cbr 1000 ------- 0 1.0 0.0 63 168
h 1.104444 1 5 cbr 1000 ------- 0 1.0 0.0 68 182
+ 1.104444 1 5 cbr 1000 ------- 0 1.0 0.0 68 182
h 1.108 2 5 cbr 1000 ------- 0 2.0 0.1 38 183
h 1.108 3 5 cbr 1000 ------- 0 3.0 0.2 38 184
h 1.108 4 5 cbr 1000 ------- 0 4.0 0.3 38 185
+ 1.108 2 5 cbr 1000 ------- 0 2.0 0.1 38 183
+ 1.108 3 5 cbr 1000 ------- 0 3.0 0.2 38 184
+ 1.108 4 5 cbr 1000 ------- 0 4.0 0.3 38 185
r 1.108476 5 0 cbr 1000 ------- 0 1.0 0.0 63 168
- 1.108568 1 5 cbr 1000 ------- 0 1.0 0.0 64 172
h 1.113333 1 5 cbr 1000 ------- 0 1.0 0.0 69 186
+ 1.113333 1 5 cbr 1000 ------- 0 1.0 0.0 69 186
r 1.116684 5 0 cbr 1000 ------- 0 1.0 0.0 64 172
- 1.116776 1 5 cbr 1000 ------- 0 1.0 0.0 65 176
h 1.122222 1 5 cbr 1000 ------- 0 1.0 0.0 70 187
+ 1.122222 1 5 cbr 1000 ------- 0 1.0 0.0 70 187
h 1.124 2 5 cbr 1000 ------- 0 2.0 0.1 39 188
h 1.124 3 5 cbr 1000 ------- 0 3.0 0.2 39 189
h 1.124 4 5 cbr 1000 ------- 0 4.0 0.3 39 190
+ 1.124 2 5 cbr 1000 ------- 0 2.0 0.1 39 188
+ 1.124 3 5 cbr 1000 ------- 0 3.0 0.2 39 189
+ 1.124 4 5 cbr 1000 ------- 0 4.0 0.3 39 190
r 1.124892 5 0 cbr 1000 ------- 0 1.0 0.0 65 176
- 1.124984 1 5 cbr 1000 ------- 0 1.0 0.0 66 177
h 1.131111 1 5 cbr 1000 ------- 0 1.0 0.0 71 191
+ 1.131111 1 5 cbr 1000 ------- 0 1.0 0.0 71 191
r 1.1331 5 0 cbr 1000 ------- 0 1.0 0.0 66 177
- 1.133192 1 5 cbr 1000 ------- 0 1.0 0.0 67 181
h 1.14 1 5 cbr 1000 ------- 0 1.0 0.0 72 192
+ 1.14 1 5 cbr 1000 ------- 0 1.0 0.0 72 192
h 1.14 2 5 cbr 1000 ------- 0 2.0 0.1 40 193
h 1.14 3 5 cbr 1000 ------- 0 3.0 0.2 40 194
h 1.14 4 5 cbr 1000 ------- 0 4.0 0.3 40 195
+ 1.14 2 5 cbr 1000 ------- 0 2.0 0.1 40 193
+ 1.14 3 5 cbr 1000 ------- 0 3.0 0.2 40 194
+ 1.14 4 5 cbr 1000 ------- 0 4.0 0.3 40 195
r 1.141308 5 0 cbr 1000 ------- 0 1.0 0.0 67 181
- 1.1414 1 5 cbr 1000 ------- 0 1.0 0.0 68 182
h 1.148889 1 5 cbr 1000 ------- 0 1.0 0.0 73 196
+ 1.148889 1 5 cbr 1000 ------- 0 1.0 0.0 73 196
r 1.149516 5 0 cbr 1000 ------- 0 1.0 0.0 68 182
- 1.149608 1 5 cbr 1000 ------- 0 1.0 0.0 69 186
h 1.156 2 5 cbr 1000 ------- 0 2.0 0.1 41 197
h 1.156 3 5 cbr 1000 ------- 0 3.0 0.2 41 198
h 1.156 4 5 cbr 1000 ------- 0 4.0 0.3 41 199
+ 1.156 2 5 cbr 1000 ------- 0 2.0 0.1 41 197
+ 1.156 3 5 cbr 1000 ------- 0 3.0 0.2 41 198
+ 1.156 4 5 cbr 1000 ------- 0 4.0 0.3 41 199
r 1.157724 5 0 cbr 1000 ------- 0 1.0 0.0 69 186
h 1.157778 1 5 cbr 1000 ------- 0 1.0 0.0 74 200
+ 1.157778 1 5 cbr 1000 ------- 0 1.0 0.0 74 200
- 1.157816 1 5 cbr 1000 ------- 0 1.0 0.0 70 187
r 1.166068 5 0 cbr 1000 ------- 0 1.0 0.0 70 187
- 1.16616 1 5 cbr 1000 ------- 0 1.0 0.0 71 191
h 1.166667 1 5 cbr 1000 ------- 0 1.0 0.0 75 201
+ 1.166667 1 5 cbr 1000 ------- 0 1.0 0.0 75 201
h 1.172 2 5 cbr 1000 ------- 0 2.0 0.1 42 202
h 1.172 3 5 cbr 1000 ------- 0 3.0 0.2 42 203
h 1.172 4 5 cbr 1000 ------- 0 4.0 0.3 42 204
+ 1.172 2 5 cbr 1000 ------- 0 2.0 0.1 42 202
+ 1.172 3 5 cbr 1000 ------- 0 3.0 0.2 42 203
+ 1.172 4 5 cbr 1000 ------- 0 4.0 0.3 42 204
r 1.174276 5 0 cbr 1000 ------- 0 1.0 0.0 71 191
- 1.174368 1 5 cbr 1000 ------- 0 1.0 0.0 72 192
h 1.175556 1 5 cbr 1000 ------- 0 1.0 0.0 76 205
+ 1.175556 1 5 cbr 1000 ------- 0 1.0 0.0 76 205
r 1.182484 5 0 cbr 1000 ------- 0 1.0 0.0 72 192
- 1.182576 1 5 cbr 1000 ------- 0 1.0 0.0 73 196
h 1.184444 1 5 cbr 1000 ------- 0 1.0 0.0 77 206
+ 1.184444 1 5 cbr 1000 ------- 0 1.0 0.0 77 206
h 1.188 2 5 cbr 1000 ------- 0 2.0 0.1 43 207
h 1.188 3 5 cbr 1000 ------- 0 3.0 0.2 43 208
h 1.188 4 5 cbr 1000 ------- 0 4.0 0.3 43 209
+ 1.188 2 5 cbr 1000 ------- 0 2.0 0.1 43 207
+ 1.188 3 5 cbr 1000 ------- 0 3.0 0.2 43 208
+ 1.188 4 5 cbr 1000 ------- 0 4.0 0.3 43 209
r 1.190692 5 0 cbr 1000 ------- 0 1.0 0.0 73 196
- 1.190784 1 5 cbr 1000 ------- 0 1.0 0.0 74 200
h 1.193333 1 5 cbr 1000 ------- 0 1.0 0.0 78 210
+ 1.193333 1 5 cbr 1000 ------- 0 1.0 0.0 78 210
r 1.1989 5 0 cbr 1000 ------- 0 1.0 0.0 74 200
- 1.198992 1 5 cbr 1000 ------- 0 1.0 0.0 75 201
h 1.202222 1 5 cbr 1000 ------- 0 1.0 0.0 79 211
+ 1.202222 1 5 cbr 1000 ------- 0 1.0 0.0 79 211
h 1.204 2 5 cbr 1000 ------- 0 2.0 0.1 44 212
h 1.204 3 5 cbr 1000 ------- 0 3.0 0.2 44 213
h 1.204 4 5 cbr 1000 ------- 0 4.0 0.3 44 214
+ 1.204 2 5 cbr 1000 ------- 0 2.0 0.1 44 212
+ 1.204 3 5 cbr 1000 ------- 0 3.0 0.2 44 213
+ 1.204 4 5 cbr 1000 ------- 0 4.0 0.3 44 214
r 1.207756 5 0 cbr 1000 ------- 0 1.0 0.0 75 201
- 1.207848 1 5 cbr 1000 ------- 0 1.0 0.0 76 205
h 1.211111 1 5 cbr 1000 ------- 0 1.0 0.0 80 215
+ 1.211111 1 5 cbr 1000 ------- 0 1.0 0.0 80 215
r 1.215964 5 0 cbr 1000 ------- 0 1.0 0.0 76 205
- 1.216056 1 5 cbr 1000 ------- 0 1.0 0.0 77 206
h 1.22 1 5 cbr 1000 ------- 0 1.0 0.0 81 216
+ 1.22 1 5 cbr 1000 ------- 0 1.0 0.0 81 216
h 1.22 2 5 cbr 1000 ------- 0 2.0 0.1 45 217
h 1.22 3 5 cbr 1000 ------- 0 3.0 0.2 45 218
h 1.22 4 5 cbr 1000 ------- 0 4.0 0.3 45 219
+ 1.22 2 5 cbr 1000 ------- 0 2.0 0.1 45 217
+ 1.22 3 5 cbr 1000 ------- 0 3.0 0.2 45 218
+ 1.22 4 5 cbr 1000 ------- 0 4.0 0.3 45 219
r 1.224172 5 0 cbr 1000 ------- 0 1.0 0.0 77 206
- 1.224264 1 5 cbr 1000 ------- 0 1.0 0.0 78 210
h 1.228889 1 5 cbr 1000 ------- 0 1.0 0.0 82 220
+ 1.228889 1 5 cbr 1000 ------- 0 1.0 0.0 82 220
r 1.23238 5 0 cbr 1000 ------- 0 1.0 0.0 78 210
- 1.232472 1 5 cbr 1000 ------- 0 1.0 0.0 79 211
h 1.236 2 5 cbr 1000 ------- 0 2.0 0.1 46 221
h 1.236 3 5 cbr 1000 ------- 0 3.0 0.2 46 222
h 1.236 4 5 cbr 1000 ------- 0 4.0 0.3 46 223
+ 1.236 2 5 cbr 1000 ------- 0 2.0 0.1 46 221
+ 1.236 3 5 cbr 1000 ------- 0 3.0 0.2 46 222
+ 1.236 4 5 cbr 1000 ------- 0 4.0 0.3 46 223
h 1.237778 1 5 cbr 1000 ------- 0 1.0 0.0 83 224
+ 1.237778 1 5 cbr 1000 ------- 0 1.0 0.0 83 224
r 1.240588 5 0 cbr 1000 ------- 0 1.0 0.0 79 211
- 1.24068 1 5 cbr 1000 ------- 0 1.0 0.0 80 215
h 1.246667 1 5 cbr 1000 ------- 0 1.0 0.0 84 225
+ 1.246667 1 5 cbr 1000 ------- 0 1.0 0.0 84 225
r 1.248796 5 0 cbr 1000 ------- 0 1.0 0.0 80 215
- 1.248888 1 5 cbr 1000 ------- 0 1.0 0.0 81 216
h 1.252 2 5 cbr 1000 ------- 0 2.0 0.1 47 226
h 1.252 3 5 cbr 1000 ------- 0 3.0 0.2 47 227
h 1.252 4 5 cbr 1000 ------- 0 4.0 0.3 47 228
+ 1.252 2 5 cbr 1000 ------- 0 2.0 0.1 47 226
+ 1.252 3 5 cbr 1000 ------- 0 3.0 0.2 47 227
+ 1.252 4 5 cbr 1000 ------- 0 4.0 0.3 47 228
h 1.255556 1 5 cbr 1000 ------- 0 1.0 0.0 85 229
+ 1.255556 1 5 cbr 1000 ------- 0 1.0 0.0 85 229
r 1.257004 5 0 cbr 1000 ------- 0 1.0 0.0 81 216