V -t * -v 1.0a5 -a 0
A -t * -n 1 -p 0 -o 0x7fffffff -c 30 -a 1
A -t * -h 1 -m 1073741823 -s 0
n -t * -a 4 -s 4 -S UP -v circle -c black -i black
n -t * -a 0 -s 0 -S UP -v circle -c black -i black
n -t * -a 1 -s 1 -S UP -v circle -c black -i black
n -t * -a 6 -s 6 -S UP -v circle -c black -i black
n -t * -a 2 -s 2 -S UP -v circle -c black -i black
n -t * -a 3 -s 3 -S UP -v circle -c black -i black
l -t * -s 6 -d 0 -S UP -r 10000000 -D 0.002 -c black -o right
X -t * -n 5 -r 1Mb -D 0ms -o left
L -t * -s 5 -d 0 -o up
L -t * -s 5 -d 1 -o down
L -t * -s 5 -d 2 -o up
L -t * -s 5 -d 3 -o down
L -t * -s 5 -d 4 -o up
h -t 0.5 -s 1 -d 5 -p cbr -e 1000 -c 0 -i 0 -a 0 -x {1.0 0.0 0 ------- null}
h -t 0.5 -s 2 -d 5 -p cbr -e 1000 -c 0 -i 1 -a 0 -x {2.0 0.1 0 ------- null}
h -t 0.5 -s 3 -d 5 -p cbr -e 1000 -c 0 -i 2 -a 0 -x {3.0 0.2 0 ------- null}
h -t 0.5 -s 4 -d 5 -p cbr -e 1000 -c 0 -i 3 -a 0 -x {4.0 0.3 0 ------- null}
+ -t 0.5 -s 1 -d 5 -p cbr -e 1000 -c 0 -i 0 -a 0 -x {1.0 0.0 0 ------- null}
- -t 0.5 -s 1 -d 5 -p cbr -e 1000 -c 0 -i 0 -a 0 -x {1.0 0.0 0 ------- null}
h -t 0.5 -s 1 -d 5 -p cbr -e 1000 -c 0 -i 0 -a 0 -x {1.0 0.0 -1 ------- null}
+ -t 0.5 -s 2 -d 5 -p cbr -e 1000 -c 0 -i 1 -a 0 -x {2.0 0.1 0 ------- null}
- -t 0.5 -s 2 -d 5 -p cbr -e 1000 -c 0 -i 1 -a 0 -x {2.0 0.1 0 ------- null}
h -t 0.5 -s 2 -d 5 -p cbr -e 1000 -c 0 -i 1 -a 0 -x {2.0 0.1 -1 ------- null}
+ -t 0.5 -s 3 -d 5 -p cbr -e 1000 -c 0 -i 2 -a 0 -x {3.0 0.2 0 ------- null}
- -t 0.5 -s 3 -d 5 -p cbr -e 1000 -c 0 -i 2 -a 0 -x {3.0 0.2 0 ------- null}
h -t 0.5 -s 3 -d 5 -p cbr -e 1000 -c 0 -i 2 -a 0 -x {3.0 0.2 -1 ------- null}
+ -t 0.5 -s 4 -d 5 -p cbr -e 1000 -c 0 -i 3 -a 0 -x {4.0 0.3 0 ------- null}
- -t 0.5 -s 4 -d 5 -p cbr -e 1000 -c 0 -i 3 -a 0 -x {4.0 0.3 0 ------- null}
h -t 0.5 -s 4 -d 5 -p cbr -e 1000 -c 0 -i 3 -a 0 -x {4.0 0.3 -1 ------- null}
r -t 0.508248 -s 5 -d 0 -p cbr -e 1000 -c 0 -i 1 -a 0 -x {2.0 0.1 0 ------- null}
h -t 0.508888888888889 -s 1 -d 5 -p cbr -e 1000 -c 0 -i 4 -a 0 -x {1.0 0.0 1 ------- null}
+ -t 0.508888888888889 -s 1 -d 5 -p cbr -e 1000 -c 0 -i 4 -a 0 -x {1.0 0.0 1 ------- null}
h -t 0.516 -s 2 -d 5 -p cbr -e 1000 -c 0 -i 5 -a 0 -x {2.0 0.1 1 ------- null}
h -t 0.516 -s 3 -d 5 -p cbr -e 1000 -c 0 -i 6 -a 0 -x {3.0 0.2 1 ------- null}
h -t 0.516 -s 4 -d 5 -p cbr -e 1000 -c 0 -i 7 -a 0 -x {4.0 0.3 1 ------- null}
+ -t 0.516 -s 2 -d 5 -p cbr -e 1000 -c 0 -i 5 -a 0 -x {2.0 0.1 1 ------- null}
- -t 0.516 -s 2 -d 5 -p cbr -e 1000 -c 0 -i 5 -a 0 -x {2.0 0.1 1 ------- null}
h -t 0.516 -s 2 -d 5 -p cbr -e 1000 -c 0 -i 5 -a 0 -x {2.0 0.1 -1 ------- null}
+ -t 0.516 -s 3 -d 5 -p cbr -e 1000 -c 0 -i 6 -a 0 -x {3.0 0.2 1 ------- null}
+ -t 0.516 -s 4 -d 5 -p cbr -e 1000 -c 0 -i 7 -a 0 -x {4.0 0.3 1 ------- null}
r -t 0.517748 -s 5 -d 0 -p cbr -e 1000 -c 0 -i 3 -a 0 -x {4.0 0.3 0 ------- null}
h -t 0.517777777777778 -s 1 -d 5 -p cbr -e 1000 -c 0 -i 8 -a 0 -x {1.0 0.0 2 ------- null}
+ -t 0.517777777777778 -s 1 -d 5 -p cbr -e 1000 -c 0 -i 8 -a 0 -x {1.0 0.0 2 ------- null}
- -t 0.51784 -s 4 -d 5 -p cbr -e 1000 -c 0 -i 7 -a 0 -x {4.0 0.3 1 ------- null}
h -t 0.51784 -s 4 -d 5 -p cbr -e 1000 -c 0 -i 7 -a 0 -x {4.0 0.3 -1 ------- null}
h -t 0.526666666666667 -s 1 -d 5 -p cbr -e 1000 -c 0 -i 9 -a 0 -x {1.0 0.0 3 ------- null}
+ -t 0.526666666666667 -s 1 -d 5 -p cbr -e 1000 -c 0 -i 9 -a 0 -x {1.0 0.0 3 ------- null}
r -t 0.527248 -s 5 -d 0 -p cbr -e 1000 -c 0 -i 5 -a 0 -x {2.0 0.1 1 ------- null}
h -t 0.532 -s 2 -d 5 -p cbr -e 1000 -c 0 -i 10 -a 0 -x {2.0 0.1 2 ------- null}
h -t 0.532 -s 3 -d 5 -p cbr -e 1000 -c 0 -i 11 -a 0 -x {3.0 0.2 2 ------- null}
h -t 0.532 -s 4 -d 5 -p cbr -e 1000 -c 0 -i 12 -a 0 -x {4.0 0.3 2 ------- null}
+ -t 0.532 -s 2 -d 5 -p cbr -e 1000 -c 0 -i 10 -a 0 -x {2.0 0.1 2 ------- null}
- -t 0.532 -s 2 -d 5 -p cbr -e 1000 -c 0 -i 10 -a 0 -x {2.0 0.1 2 ------- null}
h -t 0.532 -s 2 -d 5 -p cbr -e 1000 -c 0 -i 10 -a 0 -x {2.0 0.1 -1 ------- null}
+ -t 0.532 -s 3 -d 5 -p cbr -e 1000 -c 0 -i 11 -a 0 -x {3.0 0.2 2 ------- null}
+ -t 0.532 -s 4 -d 5 -p cbr -e 1000 -c 0 -i 12 -a 0 -x {4.0 0.3 2 ------- null}
h -t 0.535555555555555 -s 1 -d 5 -p cbr -e 1000 -c 0 -i 13 -a 0 -x {1.0 0.0 4 ------- null}
+ -t 0.535555555555555 -s 1 -d 5 -p cbr -e 1000 -c 0 -i 13 -a 0 -x {1.0 0.0 4 ------- null}
r -t 0.536616 -s 5 -d 0 -p cbr -e 1000 -c 0 -i 7 -a 0 -x {4.0 0.3 1 ------- null}
- -t 0.536708 -s 4 -d 5 -p cbr -e 1000 -c 0 -i 12 -a 0 -x {4.0 0.3 2 ------- null}
h -t 0.536708 -s 4 -d 5 -p cbr -e 1000 -c 0 -i 12 -a 0 -x {4.0 0.3 -1 ------- null}
h -t 0.544444444444444 -s 1 -d 5 -p cbr -e 1000 -c 0 -i 14 -a 0 -x {1.0 0.0 5 ------- null}
+ -t 0.544444444444444 -s 1 -d 5 -p cbr -e 1000 -c 0 -i 14 -a 0 -x {1.0 0.0 5 ------- null}
r -t 0.545832 -s 5 -d 0 -p cbr -e 1000 -c 0 -i 0 -a 0 -x {1.0 0.0 0 ------- null}
- -t 0.545924 -s 1 -d 5 -p cbr -e 1000 -c 0 -i 4 -a 0 -x {1.0 0.0 1 ------- null}
h -t 0.545924 -s 1 -d 5 -p cbr -e 1000 -c 0 -i 4 -a 0 -x {1.0 0.0 -1 ------- null}
h -t 0.548 -s 2 -d 5 -p cbr -e 1000 -c 0 -i 15 -a 0 -x {2.0 0.1 3 ------- null}
h -t 0.548 -s 3 -d 5 -p cbr -e 1000 -c 0 -i 16 -a 0 -x {3.0 0.2 3 ------- null}
h -t 0.548 -s 4 -d 5 -p cbr -e 1000 -c 0 -i 17 -a 0 -x {4.0 0.3 3 ------- null}
+ -t 0.548 -s 2 -d 5 -p cbr -e 1000 -c 0 -i 15 -a 0 -x {2.0 0.1 3 ------- null}
+ -t 0.548 -s 3 -d 5 -p cbr -e 1000 -c 0 -i 16 -a 0 -x {3.0 0.2 3 ------- null}
+ -t 0.548 -s 4 -d 5 -p cbr -e 1000 -c 0 -i 17 -a 0 -x {4.0 0.3 3 ------- null}
h -t 0.553333333333333 -s 1 -d 5 -p cbr -e 1000 -c 0 -i 18 -a 0 -x {1.0 0.0 6 ------- null}
+ -t 0.553333333333333 -s 1 -d 5 -p cbr -e 1000 -c 0 -i 18 -a 0 -x {1.0 0.0 6 ------- null}
r -t 0.555328 -s 5 -d 0 -p cbr -e 1000 -c 0 -i 10 -a 0 -x {2.0 0.1 2 ------- null}
- -t 0.55542 -s 2 -d 5 -p cbr -e 1000 -c 0 -i 15 -a 0 -x {2.0 0.1 3 ------- null}
h -t 0.55542 -s 2 -d 5 -p cbr -e 1000 -c 0 -i 15 -a 0 -x {2.0 0.1 -1 ------- null}
h -t 0.562222222222222 -s 1 -d 5 -p cbr -e 1000 -c 0 -i 19 -a 0 -x {1.0 0.0 7 ------- null}
+ -t 0.562222222222222 -s 1 -d 5 -p cbr -e 1000 -c 0 -i 19 -a 0 -x {1.0 0.0 7 ------- null}
h -t 0.564 -s 2 -d 5 -p cbr -e 1000 -c 0 -i 20 -a 0 -x {2.0 0.1 4 ------- null}
h -t 0.564 -s 3 -d 5 -p cbr -e 1000 -c 0 -i 21 -a 0 -x {3.0 0.2 4 ------- null}
h -t 0.564 -s 4 -d 5 -p cbr -e 1000 -c 0 -i 22 -a 0 -x {4.0 0.3 4 ------- null}
+ -t 0.564 -s 2 -d 5 -p cbr -e 1000 -c 0 -i 20 -a 0 -x {2.0 0.1 4 ------- null}
+ -t 0.564 -s 3 -d 5 -p cbr -e 1000 -c 0 -i 21 -a 0 -x {3.0 0.2 4 ------- null}
+ -t 0.564 -s 4 -d 5 -p cbr -e 1000 -c 0 -i 22 -a 0 -x {4.0 0.3 4 ------- null}
r -t 0.564312 -s 5 -d 0 -p cbr -e 1000 -c 0 -i 15 -a 0 -x {2.0 0.1 3 ------- null}
- -t 0.564404 -s 2 -d 5 -p cbr -e 1000 -c 0 -i 20 -a 0 -x {2.0 0.1 4 ------- null}
h -t 0.564404 -s 2 -d 5 -p cbr -e 1000 -c 0 -i 20 -a 0 -x {2.0 0.1 -1 ------- null}
h -t 0.571111111111111 -s 1 -d 5 -p cbr -e 1000 -c 0 -i 23 -a 0 -x {1.0 0.0 8 ------- null}
+ -t 0.571111111111111 -s 1 -d 5 -p cbr -e 1000 -c 0 -i 23 -a 0 -x {1.0 0.0 8 ------- null}
r -t 0.573168 -s 5 -d 0 -p cbr -e 1000 -c 0 -i 20 -a 0 -x {2.0 0.1 4 ------- null}
h -t 0.58 -s 1 -d 5 -p cbr -e 1000 -c 0 -i 24 -a 0 -x {1.0 0.0 9 ------- null}
+ -t 0.58 -s 1 -d 5 -p cbr -e 1000 -c 0 -i 24 -a 0 -x {1.0 0.0 9 ------- null}
h -t 0.58 -s 2 -d 5 -p cbr -e 1000 -c 0 -i 25 -a 0 -x {2.0 0.1 5 ------- null}
h -t 0.58 -s 3 -d 5 -p cbr -e 1000 -c 0 -i 26 -a 0 -x {3.0 0.2 5 ------- null}
h -t 0.58 -s 4 -d 5 -p cbr -e 1000 -c 0 -i 27 -a 0 -x {4.0 0.3 5 ------- null}
+ -t 0.58 -s 2 -d 5 -p cbr -e 1000 -c 0 -i 25 -a 0 -x {2.0 0.1 5 ------- null}
- -t 0.58 -s 2 -d 5 -p cbr -e 1000 -c 0 -i 25 -a 0 -x {2.0 0.1 5 ------- null}
h -t 0.58 -s 2 -d 5 -p cbr -e 1000 -c 0 -i 25 -a 0 -x {2.0 0.1 -1 ------- null}
+ -t 0.58 -s 3 -d 5 -p cbr -e 1000 -c 0 -i 26 -a 0 -x {3.0 0.2 5 ------- null}
+ -t 0.58 -s 4 -d 5 -p cbr -e 1000 -c 0 -i 27 -a 0 -x {4.0 0.3 5 ------- null}
r -t 0.583916 -s 5 -d 0 -p cbr -e 1000 -c 0 -i 4 -a 0 -x {1.0 0.0 1 ------- null}
- -t 0.584008 -s 1 -d 5 -p cbr -e 1000 -c 0 -i 8 -a 0 -x {1.0 0.0 2 ------- null}
h -t 0.584008 -s 1 -d 5 -p cbr -e 1000 -c 0 -i 8 -a 0 -x {1.0 0.0 -1 ------- null}
h -t 0.588888888888888 -s 1 -d 5 -p cbr -e 1000 -c 0 -i 28 -a 0 -x {1.0 0.0 10 ------- null}
+ -t 0.588888888888888 -s 1 -d 5 -p cbr -e 1000 -c 0 -i 28 -a 0 -x {1.0 0.0 10 ------- null}
r -t 0.592264 -s 5 -d 0 -p cbr -e 1000 -c 0 -i 12 -a 0 -x {4.0 0.3 2 ------- null}
- -t 0.592356 -s 4 -d 5 -p cbr -e 1000 -c 0 -i 17 -a 0 -x {4.0 0.3 3 ------- null}
h -t 0.592356 -s 4 -d 5 -p cbr -e 1000 -c 0 -i 17 -a 0 -x {4.0 0.3 -1 ------- null}
h -t 0.596 -s 2 -d 5 -p cbr -e 1000 -c 0 -i 29 -a 0 -x {2.0 0.1 6 ------- null}
h -t 0.596 -s 3 -d 5 -p cbr -e 1000 -c 0 -i 30 -a 0 -x {3.0 0.2 6 ------- null}
h -t 0.596 -s 4 -d 5 -p cbr -e 1000 -c 0 -i 31 -a 0 -x {4.0 0.3 6 ------- null}
+ -t 0.596 -s 2 -d 5 -p cbr -e 1000 -c 0 -i 29 -a 0 -x {2.0 0.1 6 ------- null}
+ -t 0.596 -s 3 -d 5 -p cbr -e 1000 -c 0 -i 30 -a 0 -x {3.0 0.2 6 ------- null}
+ -t 0.596 -s 4 -d 5 -p cbr -e 1000 -c 0 -i 31 -a 0 -x {4.0 0.3 6 ------- null}
h -t 0.597777777777777 -s 1 -d 5 -p cbr -e 1000 -c 0 -i 32 -a 0 -x {1.0 0.0 11 ------- null}
+ -t 0.597777777777777 -s 1 -d 5 -p cbr -e 1000 -c 0 -i 32 -a 0 -x {1.0 0.0 11 ------- null}
r -t 0.600604 -s 5 -d 0 -p cbr -e 1000 -c 0 -i 8 -a 0 -x {1.0 0.0 2 ------- null}
- -t 0.600696 -s 1 -d 5 -p cbr -e 1000 -c 0 -i 9 -a 0 -x {1.0 0.0 3 ------- null}
h -t 0.600696 -s 1 -d 5 -p cbr -e 1000 -c 0 -i 9 -a 0 -x {1.0 0.0 -1 ------- null}
h -t 0.606666666666666 -s 1 -d 5 -p cbr -e 1000 -c 0 -i 33 -a 0 -x {1.0 0.0 12 ------- null}
+ -t 0.606666666666666 -s 1 -d 5 -p cbr -e 1000 -c 0 -i 33 -a 0 -x {1.0 0.0 12 ------- null}
r -t 0.609076 -s 5 -d 0 -p cbr -e 1000 -c 0 -i 9 -a 0 -x {1.0 0.0 3 ------- null}
- -t 0.609168 -s 1 -d 5 -p cbr -e 1000 -c 0 -i 13 -a 0 -x {1.0 0.0 4 ------- null}
h -t 0.609168 -s 1 -d 5 -p cbr -e 1000 -c 0 -i 13 -a 0 -x {1.0 0.0 -1 ------- null}
h -t 0.612 -s 2 -d 5 -p cbr -e 1000 -c 0 -i 34 -a 0 -x {2.0 0.1 7 ------- null}
h -t 0.612 -s 3 -d 5 -p cbr -e 1000 -c 0 -i 35 -a 0 -x {3.0 0.2 7 ------- null}
h -t 0.612 -s 4 -d 5 -p cbr -e 1000 -c 0 -i 36 -a 0 -x {4.0 0.3 7 ------- null}
+ -t 0.612 -s 2 -d 5 -p cbr -e 1000 -c 0 -i 34 -a 0 -x {2.0 0.1 7 ------- null}
+ -t 0.612 -s 3 -d 5 -p cbr -e 1000 -c 0 -i 35 -a 0 -x {3.0 0.2 7 ------- null}
+ -t 0.612 -s 4 -d 5 -p cbr -e 1000 -c 0 -i 36 -a 0 -x {4.0 0.3 7 ------- null}
h -t 0.615555555555555 -s 1 -d 5 -p cbr -e 1000 -c 0 -i 37 -a 0 -x {1.0 0.0 13 ------- null}
+ -t 0.615555555555555 -s 1 -d 5 -p cbr -e 1000 -c 0 -i 37 -a 0 -x {1.0 0.0 13 ------- null}
r -t 0.617932 -s 5 -d 0 -p cbr -e 1000 -c 0 -i 13 -a 0 -x {1.0 0.0 4 ------- null}
- -t 0.618024 -s 1 -d 5 -p cbr -e 1000 -c 0 -i 14 -a 0 -x {1.0 0.0 5 ------- null}
h -t 0.618024 -s 1 -d 5 -p cbr -e 1000 -c 0 -i 14 -a 0 -x {1.0 0.0 -1 ------- null}
h -t 0.624444444444444 -s 1 -d 5 -p cbr -e 1000 -c 0 -i 38 -a 0 -x {1.0 0.0 14 ------- null}
+ -t 0.624444444444444 -s 1 -d 5 -p cbr -e 1000 -c 0 -i 38 -a 0 -x {1.0 0.0 14 ------- null}
r -t 0.626788 -s 5 -d 0 -p cbr -e 1000 -c 0 -i 14 -a 0 -x {1.0 0.0 5 ------- null}
- -t 0.62688 -s 1 -d 5 -p cbr -e 1000 -c 0 -i 18 -a 0 -x {1.0 0.0 6 ------- null}
h -t 0.62688 -s 1 -d 5 -p cbr -e 1000 -c 0 -i 18 -a 0 -x {1.0 0.0 -1 ------- null}
h -t 0.628 -s 2 -d 5 -p cbr -e 1000 -c 0 -i 39 -a 0 -x {2.0 0.1 8 ------- null}
h -t 0.628 -s 3 -d 5 -p cbr -e 1000 -c 0 -i 40 -a 0 -x {3.0 0.2 8 ------- null}
h -t 0.628 -s 4 -d 5 -p cbr -e 1000 -c 0 -i 41 -a 0 -x {4.0 0.3 8 ------- null}
+ -t 0.628 -s 2 -d 5 -p cbr -e 1000 -c 0 -i 39 -a 0 -x {2.0 0.1 8 ------- null}
+ -t 0.628 -s 3 -d 5 -p cbr -e 1000 -c 0 -i 40 -a 0 -x {3.0 0.2 8 ------- null}
+ -t 0.628 -s 4 -d 5 -p cbr -e 1000 -c 0 -i 41 -a 0 -x {4.0 0.3 8 ------- null}
h -t 0.633333333333333 -s 1 -d 5 -p cbr -e 1000 -c 0 -i 42 -a 0 -x {1.0 0.0 15 ------- null}
+ -t 0.633333333333333 -s 1 -d 5 -p cbr -e 1000 -c 0 -i 42 -a 0 -x {1.0 0.0 15 ------- null}
r -t 0.635132 -s 5 -d 0 -p cbr -e 1000 -c 0 -i 18 -a 0 -x {1.0 0.0 6 ------- null}
- -t 0.635224 -s 1 -d 5 -p cbr -e 1000 -c 0 -i 19 -a 0 -x {1.0 0.0 7 ------- null}
h -t 0.635224 -s 1 -d 5 -p cbr -e 1000 -c 0 -i 19 -a 0 -x {1.0 0.0 -1 ------- null}
h -t 0.642222222222221 -s 1 -d 5 -p cbr -e 1000 -c 0 -i 43 -a 0 -x {1.0 0.0 16 ------- null}
+ -t 0.642222222222221 -s 1 -d 5 -p cbr -e 1000 -c 0 -i 43 -a 0 -x {1.0 0.0 16 ------- null}
r -t 0.643988 -s 5 -d 0 -p cbr -e 1000 -c 0 -i 19 -a 0 -x {1.0 0.0 7 ------- null}
h -t 0.644 -s 2 -d 5 -p cbr -e 1000 -c 0 -i 44 -a 0 -x {2.0 0.1 9 ------- null}
h -t 0.644 -s 3 -d 5 -p cbr -e 1000 -c 0 -i 45 -a 0 -x {3.0 0.2 9 ------- null}
h -t 0.644 -s 4 -d 5 -p cbr -e 1000 -c 0 -i 46 -a 0 -x {4.0 0.3 9 ------- null}
+ -t 0.644 -s 2 -d 5 -p cbr -e 1000 -c 0 -i 44 -a 0 -x {2.0 0.1 9 ------- null}
+ -t 0.644 -s 3 -d 5 -p cbr -e 1000 -c 0 -i 45 -a 0 -x {3.0 0.2 9 ------- null}
+ -t 0.644 -s 4 -d 5 -p cbr -e 1000 -c 0 -i 46 -a 0 -x {4.0 0.3 9 ------- null}
- -t 0.64408 -s 1 -d 5 -p cbr -e 1000 -c 0 -i 23 -a 0 -x {1.0 0.0 8 ------- null}
h -t 0.64408 -s 1 -d 5 -p cbr -e 1000 -c 0 -i 23 -a 0 -x {1.0 0.0 -1 ------- null}
h -t 0.65111111111111 -s 1 -d 5 -p cbr -e 1000 -c 0 -i 47 -a 0 -x {1.0 0.0 17 ------- null}
+ -t 0.65111111111111 -s 1 -d 5 -p cbr -e 1000 -c 0 -i 47 -a 0 -x {1.0 0.0 17 ------- null}
r -t 0.652196 -s 5 -d 0 -p cbr -e 1000 -c 0 -i 23 -a 0 -x {1.0 0.0 8 ------- null}
- -t 0.652288 -s 1 -d 5 -p cbr -e 1000 -c 0 -i 24 -a 0 -x {1.0 0.0 9 ------- null}
h -t 0.652288 -s 1 -d 5 -p cbr -e 1000 -c 0 -i 24 -a 0 -x {1.0 0.0 -1 ------- null}
h -t 0.659999999999999 -s 1 -d 5 -p cbr -e 1000 -c 0 -i 48 -a 0 -x {1.0 0.0 18 ------- null}
+ -t 0.659999999999999 -s 1 -d 5 -p cbr -e 1000 -c 0 -i 48 -a 0 -x {1.0 0.0 18 ------- null}
h -t 0.66 -s 2 -d 5 -p cbr -e 1000 -c 0 -i 49 -a 0 -x {2.0 0.1 10 ------- null}
h -t 0.66 -s 3 -d 5 -p cbr -e 1000 -c 0 -i 50 -a 0 -x {3.0 0.2 10 ------- null}
h -t 0.66 -s 4 -d 5 -p cbr -e 1000 -c 0 -i 51 -a 0 -x {4.0 0.3 10 ------- null}
+ -t 0.66 -s 2 -d 5 -p cbr -e 1000 -c 0 -i 49 -a 0 -x {2.0 0.1 10 ------- null}
+ -t 0.66 -s 3 -d 5 -p cbr -e 1000 -c 0 -i 50 -a 0 -x {3.0 0.2 10 ------- null}
+ -t 0.66 -s 4 -d 5 -p cbr -e 1000 -c 0 -i 51 -a 0 -x {4.0 0.3 10 ------- null}
r -t 0.66054 -s 5 -d 0 -p cbr -e 1000 -c 0 -i 24 -a 0 -x {1.0 0.0 9 ------- null}
- -t 0.660632 -s 1 -d 5 -p cbr -e 1000 -c 0 -i 28 -a 0 -x {1.0 0.0 10 ------- null}
h -t 0.660632 -s 1 -d 5 -p cbr -e 1000 -c 0 -i 28 -a 0 -x {1.0 0.0 -1 ------- null}
r -t 0.668748 -s 5 -d 0 -p cbr -e 1000 -c 0 -i 28 -a 0 -x {1.0 0.0 10 ------- null}
- -t 0.66884 -s 1 -d 5 -p cbr -e 1000 -c 0 -i 32 -a 0 -x {1.0 0.0 11 ------- null}
h -t 0.66884 -s 1 -d 5 -p cbr -e 1000 -c 0 -i 32 -a 0 -x {1.0 0.0 -1 ------- null}
h -t 0.668888888888888 -s 1 -d 5 -p cbr -e 1000 -c 0 -i 52 -a 0 -x {1.0 0.0 19 ------- null}
+ -t 0.668888888888888 -s 1 -d 5 -p cbr -e 1000 -c 0 -i 52 -a 0 -x {1.0 0.0 19 ------- null}
h -t 0.676 -s 2 -d 5 -p cbr -e 1000 -c 0 -i 53 -a 0 -x {2.0 0.1 11 ------- null}
h -t 0.676 -s 3 -d 5 -p cbr -e 1000 -c 0 -i 54 -a 0 -x {3.0 0.2 11 ------- null}
h -t 0.676 -s 4 -d 5 -p cbr -e 1000 -c 0 -i 55 -a 0 -x {4.0 0.3 11 ------- null}
+ -t 0.676 -s 2 -d 5 -p cbr -e 1000 -c 0 -i 53 -a 0 -x {2.0 0.1 11 ------- null}
+ -t 0.676 -s 3 -d 5 -p cbr -e 1000 -c 0 -i 54 -a 0 -x {3.0 0.2 11 ------- null}
+ -t 0.676 -s 4 -d 5 -p cbr -e 1000 -c 0 -i 55 -a 0 -x {4.0 0.3 11 ------- null}
r -t 0.676956 -s 5 -d 0 -p cbr -e 1000 -c 0 -i 32 -a 0 -x {1.0 0.0 11 ------- null}
- -t 0.677048 -s 1 -d 5 -p cbr -e 1000 -c 0 -i 33 -a 0 -x {1.0 0.0 12 ------- null}
h -t 0.677048 -s 1 -d 5 -p cbr -e 1000 -c 0 -i 33 -a 0 -x {1.0 0.0 -1 ------- null}
h -t 0.677777777777777 -s 1 -d 5 -p cbr -e 1000 -c 0 -i 56 -a 0 -x {1.0 0.0 20 ------- null}
+ -t 0.677777777777777 -s 1 -d 5 -p cbr -e 1000 -c 0 -i 56 -a 0 -x {1.0 0.0 20 ------- null}
r -t 0.685812 -s 5 -d 0 -p cbr -e 1000 -c 0 -i 33 -a 0 -x {1.0 0.0 12 ------- null}
- -t 0.685904 -s 1 -d 5 -p cbr -e 1000 -c 0 -i 37 -a 0 -x {1.0 0.0 13 ------- null}
h -t 0.685904 -s 1 -d 5 -p cbr -e 1000 -c 0 -i 37 -a 0 -x {1.0 0.0 -1 ------- null}
h -t 0.686666666666666 -s 1 -d 5 -p cbr -e 1000 -c 0 -i 57 -a 0 -x {1.0 0.0 21 ------- null}
+ -t 0.686666666666666 -s 1 -d 5 -p cbr -e 1000 -c 0 -i 57 -a 0 -x {1.0 0.0 21 ------- null}
h -t 0.692 -s 2 -d 5 -p cbr -e 1000 -c 0 -i 58 -a 0 -x {2.0 0.1 12 ------- null}
h -t 0.692 -s 3 -d 5 -p cbr -e 1000 -c 0 -i 59 -a 0 -x {3.0 0.2 12 ------- null}
h -t 0.692 -s 4 -d 5 -p cbr -e 1000 -c 0 -i 60 -a 0 -x {4.0 0.3 12 ------- null}
+ -t 0.692 -s 2 -d 5 -p cbr -e 1000 -c 0 -i 58 -a 0 -x {2.0 0.1 12 ------- null}
+ -t 0.692 -s 3 -d 5 -p cbr -e 1000 -c 0 -i 59 -a 0 -x {3.0 0.2 12 ------- null}
+ -t 0.692 -s 4 -d 5 -p cbr -e 1000 -c 0 -i 60 -a 0 -x {4.0 0.3 12 ------- null}
r -t 0.694668 -s 5 -d 0 -p cbr -e 1000 -c 0 -i 37 -a 0 -x {1.0 0.0 13 ------- null}
- -t 0.69476 -s 1 -d 5 -p cbr -e 1000 -c 0 -i 38 -a 0 -x {1.0 0.0 14 ------- null}
h -t 0.69476 -s 1 -d 5 -p cbr -e 1000 -c 0 -i 38 -a 0 -x {1.0 0.0 -1 ------- null}
h -t 0.695555555555554 -s 1 -d 5 -p cbr -e 1000 -c 0 -i 61 -a 0 -x {1.0 0.0 22 ------- null}
+ -t 0.695555555555554 -s 1 -d 5 -p cbr -e 1000 -c 0 -i 61 -a 0 -x {1.0 0.0 22 ------- null}
r -t 0.702876 -s 5 -d 0 -p cbr -e 1000 -c 0 -i 38 -a 0 -x {1.0 0.0 14 ------- null}
- -t 0.702968 -s 1 -d 5 -p cbr -e 1000 -c 0 -i 42 -a 0 -x {1.0 0.0 15 ------- null}
h -t 0.702968 -s 1 -d 5 -p cbr -e 1000 -c 0 -i 42 -a 0 -x {1.0 0.0 -1 ------- null}
h -t 0.704444444444443 -s 1 -d 5 -p cbr -e 1000 -c 0 -i 62 -a 0 -x {1.0 0.0 23 ------- null}
+ -t 0.704444444444443 -s 1 -d 5 -p cbr -e 1000 -c 0 -i 62 -a 0 -x {1.0 0.0 23 ------- null}
h -t 0.708 -s 2 -d 5 -p cbr -e 1000 -c 0 -i 63 -a 0 -x {2.0 0.1 13 ------- null}
h -t 0.708 -s 3 -d 5 -p cbr -e 1000 -c 0 -i 64 -a 0 -x {3.0 0.2 13 ------- null}
h -t 0.708 -s 4 -d 5 -p cbr -e 1000 -c 0 -i 65 -a 0 -x {4.0 0.3 13 ------- null}
+ -t 0.708 -s 2 -d 5 -p cbr -e 1000 -c 0 -i 63 -a 0 -x {2.0 0.1 13 ------- null}
+ -t 0.708 -s 3 -d 5 -p cbr -e 1000 -c 0 -i 64 -a 0 -x {3.0 0.2 13 ------- null}
+ -t 0.708 -s 4 -d 5 -p cbr -e 1000 -c 0 -i 65 -a 0 -x {4.0 0.3 13 ------- null}
r -t 0.711084 -s 5 -d 0 -p cbr -e 1000 -c 0 -i 42 -a 0 -x {1.0 0.0 15 ------- null}
- -t 0.711176 -s 1 -d 5 -p cbr -e 1000 -c 0 -i 43 -a 0 -x {1.0 0.0 16 ------- null}
h -t 0.711176 -s 1 -d 5 -p cbr -e 1000 -c 0 -i 43 -a 0 -x {1.0 0.0 -1 ------- null}
h -t 0.713333333333332 -s 1 -d 5 -p cbr -e 1000 -c 0 -i 66 -a 0 -x {1.0 0.0 24 ------- null}
+ -t 0.713333333333332 -s 1 -d 5 -p cbr -e 1000 -c 0 -i 66 -a 0 -x {1.0 0.0 24 ------- null}
r -t 0.71994 -s 5 -d 0 -p cbr -e 1000 -c 0 -i 43 -a 0 -x {1.0 0.0 16 ------- null}
- -t 0.720032 -s 1 -d 5 -p cbr -e 1000 -c 0 -i 47 -a 0 -x {1.0 0.0 17 ------- null}
h -t 0.720032 -s 1 -d 5 -p cbr -e 1000 -c 0 -i 47 -a 0 -x {1.0 0.0 -1 ------- null}
h -t 0.722222222222221 -s 1 -d 5 -p cbr -e 1000 -c 0 -i 67 -a 0 -x {1.0 0.0 25 ------- null}
+ -t 0.722222222222221 -s 1 -d 5 -p cbr -e 1000 -c 0 -i 67 -a 0 -x {1.0 0.0 25 ------- null}
h -t 0.724 -s 2 -d 5 -p cbr -e 1000 -c 0 -i 68 -a 0 -x {2.0 0.1 14 ------- null}
h -t 0.724 -s 3 -d 5 -p cbr -e 1000 -c 0 -i 69 -a 0 -x {3.0 0.2 14 ------- null}
h -t 0.724 -s 4 -d 5 -p cbr -e 1000 -c 0 -i 70 -a 0 -x {4.0 0.3 14 ------- null}
+ -t 0.724 -s 2 -d 5 -p cbr -e 1000 -c 0 -i 68 -a 0 -x {2.0 0.1 14 ------- null}
+ -t 0.724 -s 3 -d 5 -p cbr -e 1000 -c 0 -i 69 -a 0 -x {3.0 0.2 14 ------- null}
+ -t 0.724 -s 4 -d 5 -p cbr -e 1000 -c 0 -i 70 -a 0 -x {4.0 0.3 14 ------- null}
r -t 0.728148 -s 5 -d 0 -p cbr -e 1000 -c 0 -i 47 -a 0 -x {1.0 0.0 17 ------- null}
- -t 0.72824 -s 1 -d 5 -p cbr -e 1000 -c 0 -i 48 -a 0 -x {1.0 0.0 18 ------- null}
h -t 0.72824 -s 1 -d 5 -p cbr -e 1000 -c 0 -i 48 -a 0 -x {1.0 0.0 -1 ------- null}
h -t 0.73111111111111 -s 1 -d 5 -p cbr -e 1000 -c 0 -i 71 -a 0 -x {1.0 0.0 26 ------- null}
+ -t 0.73111111111111 -s 1 -d 5 -p cbr -e 1000 -c 0 -i 71 -a 0 -x {1.0 0.0 26 ------- null}
r -t 0.736356 -s 5 -d 0 -p cbr -e 1000 -c 0 -i 48 -a 0 -x {1.0 0.0 18 ------- null}
- -t 0.736448 -s 1 -d 5 -p cbr -e 1000 -c 0 -i 52 -a 0 -x {1.0 0.0 19 ------- null}
h -t 0.736448 -s 1 -d 5 -p cbr -e 1000 -c 0 -i 52 -a 0 -x {1.0 0.0 -1 ------- null}
h -t 0.739999999999999 -s 1 -d 5 -p cbr -e 1000 -c 0 -i 72 -a 0 -x {1.0 0.0 27 ------- null}
+ -t 0.739999999999999 -s 1 -d 5 -p cbr -e 1000 -c 0 -i 72 -a 0 -x {1.0 0.0 27 ------- null}
h -t 0.74 -s 2 -d 5 -p cbr -e 1000 -c 0 -i 73 -a 0 -x {2.0 0.1 15 ------- null}
h -t 0.74 -s 3 -d 5 -p cbr -e 1000 -c 0 -i 74 -a 0 -x {3.0 0.2 15 ------- null}
h -t 0.74 -s 4 -d 5 -p cbr -e 1000 -c 0 -i 75 -a 0 -x {4.0 0.3 15 ------- null}
+ -t 0.74 -s 2 -d 5 -p cbr -e 1000 -c 0 -i 73 -a 0 -x {2.0 0.1 15 ------- null}
+ -t 0.74 -s 3 -d 5 -p cbr -e 1000 -c 0 -i 74 -a 0 -x {3.0 0.2 15 ------- null}
+ -t 0.74 -s 4 -d 5 -p cbr -e 1000 -c 0 -i 75 -a 0 -x {4.0 0.3 15 ------- null}
r -t 0.744564 -s 5 -d 0 -p cbr -e 1000 -c 0 -i 52 -a 0 -x {1.0 0.0 19 ------- null}
- -t 0.744656 -s 1 -d 5 -p cbr -e 1000 -c 0 -i 56 -a 0 -x {1.0 0.0 20 ------- null}
h -t 0.744656 -s 1 -d 5 -p cbr -e 1000 -c 0 -i 56 -a 0 -x {1.0 0.0 -1 ------- null}
h -t 0.748888888888887 -s 1 -d 5 -p cbr -e 1000 -c 0 -i 76 -a 0 -x {1.0 0.0 28 ------- null}
+ -t 0.748888888888887 -s 1 -d 5 -p cbr -e 1000 -c 0 -i 76 -a 0 -x {1.0 0.0 28 ------- null}
r -t 0.752772 -s 5 -d 0 -p cbr -e 1000 -c 0 -i 56 -a 0 -x {1.0 0.0 20 ------- null}
- -t 0.752864 -s 1 -d 5 -p cbr -e 1000 -c 0 -i 57 -a 0 -x {1.0 0.0 21 ------- null}
h -t 0.752864 -s 1 -d 5 -p cbr -e 1000 -c 0 -i 57 -a 0 -x {1.0 0.0 -1 ------- null}
h -t 0.756 -s 2 -d 5 -p cbr -e 1000 -c 0 -i 77 -a 0 -x {2.0 0.1 16 ------- null}
h -t 0.756 -s 3 -d 5 -p cbr -e 1000 -c 0 -i 78 -a 0 -x {3.0 0.2 16 ------- null}
h -t 0.756 -s 4 -d 5 -p cbr -e 1000 -c 0 -i 79 -a 0 -x {4.0 0.3 16 ------- null}
+ -t 0.756 -s 2 -d 5 -p cbr -e 1000 -c 0 -i 77 -a 0 -x {2.0 0.1 16 ------- null}
+ -t 0.756 -s 3 -d 5 -p cbr -e 1000 -c 0 -i 78 -a 0 -x {3.0 0.2 16 ------- null}
+ -t 0.756 -s 4 -d 5 -p cbr -e 1000 -c 0 -i 79 -a 0 -x {4.0 0.3 16 ------- null}
h -t 0.757777777777776 -s 1 -d 5 -p cbr -e 1000 -c 0 -i 80 -a 0 -x {1.0 0.0 29 ------- null}
+ -t 0.757777777777776 -s 1 -d 5 -p cbr -e 1000 -c 0 -i 80 -a 0 -x {1.0 0.0 29 ------- null}
r -t 0.76098 -s 5 -d 0 -p cbr -e 1000 -c 0 -i 57 -a 0 -x {1.0 0.0 21 ------- null}
- -t 0.761072 -s 1 -d 5 -p cbr -e 1000 -c 0 -i 61 -a 0 -x {1.0 0.0 22 ------- null}
h -t 0.761072 -s 1 -d 5 -p cbr -e 1000 -c 0 -i 61 -a 0 -x {1.0 0.0 -1 ------- null}
h -t 0.766666666666665 -s 1 -d 5 -p cbr -e 1000 -c 0 -i 81 -a 0 -x {1.0 0.0 30 ------- null}
+ -t 0.766666666666665 -s 1 -d 5 -p cbr -e 1000 -c 0 -i 81 -a 0 -x {1.0 0.0 30 ------- null}
r -t 0.769188 -s 5 -d 0 -p cbr -e 1000 -c 0 -i 61 -a 0 -x {1.0 0.0 22 ------- null}
- -t 0.76928 -s 1 -d 5 -p cbr -e 1000 -c 0 -i 62 -a 0 -x {1.0 0.0 23 ------- null}
h -t 0.76928 -s 1 -d 5 -p cbr -e 1000 -c 0 -i 62 -a 0 -x {1.0 0.0 -1 ------- null}
h -t 0.772 -s 2 -d 5 -p cbr -e 1000 -c 0 -i 82 -a 0 -x {2.0 0.1 17 ------- null}
h -t 0.772 -s 3 -d 5 -p cbr -e 1000 -c 0 -i 83 -a 0 -x {3.0 0.2 17 ------- null}
h -t 0.772 -s 4 -d 5 -p cbr -e 1000 -c 0 -i 84 -a 0 -x {4.0 0.3 17 ------- null}
+ -t 0.772 -s 2 -d 5 -p cbr -e 1000 -c 0 -i 82 -a 0 -x {2.0 0.1 17 ------- null}
+ -t 0.772 -s 3 -d 5 -p cbr -e 1000 -c 0 -i 83 -a 0 -x {3.0 0.2 17 ------- null}
+ -t 0.772 -s 4 -d 5 -p cbr -e 1000 -c 0 -i 84 -a 0 -x {4.0 0.3 17 ------- null}
h -t 0.775555555555554 -s 1 -d 5 -p cbr -e 1000 -c 0 -i 85 -a 0 -x {1.0 0.0 31 ------- null}
+ -t 0.775555555555554 -s 1 -d 5 -p cbr -e 1000 -c 0 -i 85 -a 0 -x {1.0 0.0 31 ------- null}
r -t 0.777532 -s 5 -d 0 -p cbr -e 1000 -c 0 -i 62 -a 0 -x {1.0 0.0 23 ------- null}
- -t 0.777624 -s 1 -d 5 -p cbr -e 1000 -c 0 -i 66 -a 0 -x {1.0 0.0 24 ------- null}
h -t 0.777624 -s 1 -d 5 -p cbr -e 1000 -c 0 -i 66 -a 0 -x {1.0 0.0 -1 ------- null}
h -t 0.784444444444443 -s 1 -d 5 -p cbr -e 1000 -c 0 -i 86 -a 0 -x {1.0 0.0 32 ------- null}
+ -t 0.784444444444443 -s 1 -d 5 -p cbr -e 1000 -c 0 -i 86 -a 0 -x {1.0 0.0 32 ------- null}
r -t 0.78574 -s 5 -d 0 -p cbr -e 1000 -c 0 -i 66 -a 0 -x {1.0 0.0 24 ------- null}
- -t 0.785832 -s 1 -d 5 -p cbr -e 1000 -c 0 -i 67 -a 0 -x {1.0 0.0 25 ------- null}
h -t 0.785832 -s 1 -d 5 -p cbr -e 1000 -c 0 -i 67 -a 0 -x {1.0 0.0 -1 ------- null}
h -t 0.788 -s 2 -d 5 -p cbr -e 1000 -c 0 -i 87 -a 0 -x {2.0 0.1 18 ------- null}
h -t 0.788 -s 3 -d 5 -p cbr -e 1000 -c 0 -i 88 -a 0 -x {3.0 0.2 18 ------- null}
h -t 0.788 -s 4 -d 5 -p cbr -e 1000 -c 0 -i 89 -a 0 -x {4.0 0.3 18 ------- null}
+ -t 0.788 -s 2 -d 5 -p cbr -e 1000 -c 0 -i 87 -a 0 -x {2.0 0.1 18 ------- null}
+ -t 0.788 -s 3 -d 5 -p cbr -e 1000 -c 0 -i 88 -a 0 -x {3.0 0.2 18 ------- null}
+ -t 0.788 -s 4 -d 5 -p cbr -e 1000 -c 0 -i 89 -a 0 -x {4.0 0.3 18 ------- null}
h -t 0.793333333333332 -s 1 -d 5 -p cbr -e 1000 -c 0 -i 90 -a 0 -x {1.0 0.0 33 ------- null}
+ -t 0.793333333333332 -s 1 -d 5 -p cbr -e 1000 -c 0 -i 90 -a 0 -x {1.0 0.0 33 ------- null}
r -t 0.793948 -s 5 -d 0 -p cbr -e 1000 -c 0 -i 67 -a 0 -x {1.0 0.0 25 ------- null}
- -t 0.79404 -s 1 -d 5 -p cbr -e 1000 -c 0 -i 71 -a 0 -x {1.0 0.0 26 ------- null}
h -t 0.79404 -s 1 -d 5 -p cbr -e 1000 -c 0 -i 71 -a 0 -x {1.0 0.0 -1 ------- null}
r -t 0.802156 -s 5 -d 0 -p cbr -e 1000 -c 0 -i 71 -a 0 -x {1.0 0.0 26 ------- null}
h -t 0.80222222222222 -s 1 -d 5 -p cbr -e 1000 -c 0 -i 91 -a 0 -x {1.0 0.0 34 ------- null}
+ -t 0.80222222222222 -s 1 -d 5 -p cbr -e 1000 -c 0 -i 91 -a 0 -x {1.0 0.0 34 ------- null}
- -t 0.802248 -s 1 -d 5 -p cbr -e 1000 -c 0 -i 72 -a 0 -x {1.0 0.0 27 ------- null}
h -t 0.802248 -s 1 -d 5 -p cbr -e 1000 -c 0 -i 72 -a 0 -x {1.0 0.0 -1 ------- null}
h -t 0.804 -s 2 -d 5 -p cbr -e 1000 -c 0 -i 92 -a 0 -x {2.0 0.1 19 ------- null}
h -t 0.804 -s 3 -d 5 -p cbr -e 1000 -c 0 -i 93 -a 0 -x {3.0 0.2 19 ------- null}
h -t 0.804 -s 4 -d 5 -p cbr -e 1000 -c 0 -i 94 -a 0 -x {4.0 0.3 19 ------- null}
+ -t 0.804 -s 2 -d 5 -p cbr -e 1000 -c 0 -i 92 -a 0 -x {2.0 0.1 19 ------- null}
+ -t 0.804 -s 3 -d 5 -p cbr -e 1000 -c 0 -i 93 -a 0 -x {3.0 0.2 19 ------- null}
+ -t 0.804 -s 4 -d 5 -p cbr -e 1000 -c 0 -i 94 -a 0 -x {4.0 0.3 19 ------- null}
r -t 0.811012 -s 5 -d 0 -p cbr -e 1000 -c 0 -i 72 -a 0 -x {1.0 0.0 27 ------- null}
- -t 0.811104 -s 1 -d 5 -p cbr -e 1000 -c 0 -i 76 -a 0 -x {1.0 0.0 28 ------- null}
h -t 0.811104 -s 1 -d 5 -p cbr -e 1000 -c 0 -i 76 -a 0 -x {1.0 0.0 -1 ------- null}
h -t 0.811111111111109 -s 1 -d 5 -p cbr -e 1000 -c 0 -i 95 -a 0 -x {1.0 0.0 35 ------- null}
+ -t 0.811111111111109 -s 1 -d 5 -p cbr -e 1000 -c 0 -i 95 -a 0 -x {1.0 0.0 35 ------- null}
r -t 0.81922 -s 5 -d 0 -p cbr -e 1000 -c 0 -i 76 -a 0 -x {1.0 0.0 28 ------- null}
- -t 0.819312 -s 1 -d 5 -p cbr -e 1000 -c 0 -i 80 -a 0 -x {1.0 0.0 29 ------- null}
h -t 0.819312 -s 1 -d 5 -p cbr -e 1000 -c 0 -i 80 -a 0 -x {1.0 0.0 -1 ------- null}
h -t 0.819999999999998 -s 1 -d 5 -p cbr -e 1000 -c 0 -i 96 -a 0 -x {1.0 0.0 36 ------- null}
+ -t 0.819999999999998 -s 1 -d 5 -p cbr -e 1000 -c 0 -i 96 -a 0 -x {1.0 0.0 36 ------- null}
h -t 0.82 -s 2 -d 5 -p cbr -e 1000 -c 0 -i 97 -a 0 -x {2.0 0.1 20 ------- null}
h -t 0.82 -s 3 -d 5 -p cbr -e 1000 -c 0 -i 98 -a 0 -x {3.0 0.2 20 ------- null}
h -t 0.82 -s 4 -d 5 -p cbr -e 1000 -c 0 -i 99 -a 0 -x {4.0 0.3 20 ------- null}
+ -t 0.82 -s 2 -d 5 -p cbr -e 1000 -c 0 -i 97 -a 0 -x {2.0 0.1 20 ------- null}
+ -t 0.82 -s 3 -d 5 -p cbr -e 1000 -c 0 -i 98 -a 0 -x {3.0 0.2 20 ------- null}
+ -t 0.82 -s 4 -d 5 -p cbr -e 1000 -c 0 -i 99 -a 0 -x {4.0 0.3 20 ------- null}
r -t 0.827428 -s 5 -d 0 -p cbr -e 1000 -c 0 -i 80 -a 0 -x {1.0 0.0 29 ------- null}
- -t 0.82752 -s 1 -d 5 -p cbr -e 1000 -c 0 -i 81 -a 0 -x {1.0 0.0 30 ------- null}
h -t 0.82752 -s 1 -d 5 -p cbr -e 1000 -c 0 -i 81 -a 0 -x {1.0 0.0 -1 ------- null}
h -t 0.828888888888887 -s 1 -d 5 -p cbr -e 1000 -c 0 -i 100 -a 0 -x {1.0 0.0 37 ------- null}
+ -t 0.828888888888887 -s 1 -d 5 -p cbr -e 1000 -c 0 -i 100 -a 0 -x {1.0 0.0 37 ------- null}
r -t 0.835636 -s 5 -d 0 -p cbr -e 1000 -c 0 -i 81 -a 0 -x {1.0 0.0 30 ------- null}
- -t 0.835728 -s 1 -d 5 -p cbr -e 1000 -c 0 -i 85 -a 0 -x {1.0 0.0 31 ------- null}
h -t 0.835728 -s 1 -d 5 -p cbr -e 1000 -c 0 -i 85 -a 0 -x {1.0 0.0 -1 ------- null}
h -t 0.836 -s 2 -d 5 -p cbr -e 1000 -c 0 -i 101 -a 0 -x {2.0 0.1 21 ------- null}
h -t 0.836 -s 3 -d 5 -p cbr -e 1000 -c 0 -i 102 -a 0 -x {3.0 0.2 21 ------- null}
h -t 0.836 -s 4 -d 5 -p cbr -e 1000 -c 0 -i 103 -a 0 -x {4.0 0.3 21 ------- null}
+ -t 0.836 -s 2 -d 5 -p cbr -e 1000 -c 0 -i 101 -a 0 -x {2.0 0.1 21 ------- null}
+ -t 0.836 -s 3 -d 5 -p cbr -e 1000 -c 0 -i 102 -a 0 -x {3.0 0.2 21 ------- null}
+ -t 0.836 -s 4 -d 5 -p cbr -e 1000 -c 0 -i 103 -a 0 -x {4.0 0.3 21 ------- null}
h -t 0.837777777777776 -s 1 -d 5 -p cbr -e 1000 -c 0 -i 104 -a 0 -x {1.0 0.0 38 ------- null}
+ -t 0.837777777777776 -s 1 -d 5 -p cbr -e 1000 -c 0 -i 104 -a 0 -x {1.0 0.0 38 ------- null}
r -t 0.84398 -s 5 -d 0 -p cbr -e 1000 -c 0 -i 85 -a 0 -x {1.0 0.0 31 ------- null}
- -t 0.844072 -s 1 -d 5 -p cbr -e 1000 -c 0 -i 86 -a 0 -x {1.0 0.0 32 ------- null}
h -t 0.844072 -s 1 -d 5 -p cbr -e 1000 -c 0 -i 86 -a 0 -x {1.0 0.0 -1 ------- null}
h -t 0.846666666666665 -s 1 -d 5 -p cbr -e 1000 -c 0 -i 105 -a 0 -x {1.0 0.0 39 ------- null}
+ -t 0.846666666666665 -s 1 -d 5 -p cbr -e 1000 -c 0 -i 105 -a 0 -x {1.0 0.0 39 ------- null}
h -t 0.852 -s 2 -d 5 -p cbr -e 1000 -c 0 -i 106 -a 0 -x {2.0 0.1 22 ------- null}
h -t 0.852 -s 3 -d 5 -p cbr -e 1000 -c 0 -i 107 -a 0 -x {3.0 0.2 22 ------- null}
h -t 0.852 -s 4 -d 5 -p cbr -e 1000 -c 0 -i 108 -a 0 -x {4.0 0.3 22 ------- null}
+ -t 0.852 -s 2 -d 5 -p cbr -e 1000 -c 0 -i 106 -a 0 -x {2.0 0.1 22 ------- null}
+ -t 0.852 -s 3 -d 5 -p cbr -e 1000 -c 0 -i 107 -a 0 -x {3.0 0.2 22 ------- null}
+ -t 0.852 -s 4 -d 5 -p cbr -e 1000 -c 0 -i 108 -a 0 -x {4.0 0.3 22 ------- null}
r -t 0.852188 -s 5 -d 0 -p cbr -e 1000 -c 0 -i 86 -a 0 -x {1.0 0.0 32 ------- null}
- -t 0.85228 -s 1 -d 5 -p cbr -e 1000 -c 0 -i 90 -a 0 -x {1.0 0.0 33 ------- null}
h -t 0.85228 -s 1 -d 5 -p cbr -e 1000 -c 0 -i 90 -a 0 -x {1.0 0.0 -1 ------- null}
h -t 0.855555555555553 -s 1 -d 5 -p cbr -e 1000 -c 0 -i 109 -a 0 -x {1.0 0.0 40 ------- null}