V -t * -v 1.0a5 -a 0
A -t * -n 1 -p 0 -o 0x7fffffff -c 30 -a 1
A -t * -h 1 -m 1073741823 -s 0
c -t * -i 1 -n Blue
c -t * -i 2 -n Red
n -t * -a 0 -s 0 -S UP -v circle -c black -i black
n -t * -a 1 -s 1 -S UP -v circle -c black -i black
n -t * -a 2 -s 2 -S UP -v circle -c black -i black
n -t * -a 3 -s 3 -S UP -v circle -c black -i black
l -t * -s 0 -d 2 -S UP -r 2000000 -D 0.01 -c black -o right-down
l -t * -s 1 -d 2 -S UP -r 2000000 -D 0.01 -c black -o right-up
l -t * -s 2 -d 3 -S UP -r 3000000 -D 0.02 -c black -o right
q -t * -s 3 -d 2 -a 0.5
q -t * -s 2 -d 3 -a 0.5
n -t 0 -s 0 -S DLABEL -l "ftp-source" -L ""
n -t 0 -s 1 -S DLABEL -l "cbr-source" -L ""
n -t 0 -s 2 -S DLABEL -l "router" -L ""
n -t 0 -s 3 -S DLABEL -l "destination" -L ""
+ -t 0.1 -s 1 -d 2 -p cbr -e 500 -c 2 -i 0 -a 2 -x {1.0 3.1 0 ------- null}
- -t 0.1 -s 1 -d 2 -p cbr -e 500 -c 2 -i 0 -a 2 -x {1.0 3.1 0 ------- null}
h -t 0.1 -s 1 -d 2 -p cbr -e 500 -c 2 -i 0 -a 2 -x {1.0 3.1 -1 ------- null}
+ -t 0.1 -s 0 -d 2 -p tcp -e 40 -c 1 -i 1 -a 1 -x {0.0 3.0 0 ------- null}
- -t 0.1 -s 0 -d 2 -p tcp -e 40 -c 1 -i 1 -a 1 -x {0.0 3.0 0 ------- null}
h -t 0.1 -s 0 -d 2 -p tcp -e 40 -c 1 -i 1 -a 1 -x {0.0 3.0 -1 ------- null}
+ -t 0.11 -s 1 -d 2 -p cbr -e 500 -c 2 -i 2 -a 2 -x {1.0 3.1 1 ------- null}
- -t 0.11 -s 1 -d 2 -p cbr -e 500 -c 2 -i 2 -a 2 -x {1.0 3.1 1 ------- null}
h -t 0.11 -s 1 -d 2 -p cbr -e 500 -c 2 -i 2 -a 2 -x {1.0 3.1 -1 ------- null}
r -t 0.11016 -s 0 -d 2 -p tcp -e 40 -c 1 -i 1 -a 1 -x {0.0 3.0 0 ------- null}
+ -t 0.11016 -s 2 -d 3 -p tcp -e 40 -c 1 -i 1 -a 1 -x {0.0 3.0 0 ------- null}
- -t 0.11016 -s 2 -d 3 -p tcp -e 40 -c 1 -i 1 -a 1 -x {0.0 3.0 0 ------- null}
h -t 0.11016 -s 2 -d 3 -p tcp -e 40 -c 1 -i 1 -a 1 -x {0.0 3.0 -1 ------- null}
r -t 0.112 -s 1 -d 2 -p cbr -e 500 -c 2 -i 0 -a 2 -x {1.0 3.1 0 ------- null}
+ -t 0.112 -s 2 -d 3 -p cbr -e 500 -c 2 -i 0 -a 2 -x {1.0 3.1 0 ------- null}
- -t 0.112 -s 2 -d 3 -p cbr -e 500 -c 2 -i 0 -a 2 -x {1.0 3.1 0 ------- null}
h -t 0.112 -s 2 -d 3 -p cbr -e 500 -c 2 -i 0 -a 2 -x {1.0 3.1 -1 ------- null}
+ -t 0.12 -s 1 -d 2 -p cbr -e 500 -c 2 -i 3 -a 2 -x {1.0 3.1 2 ------- null}
- -t 0.12 -s 1 -d 2 -p cbr -e 500 -c 2 -i 3 -a 2 -x {1.0 3.1 2 ------- null}
h -t 0.12 -s 1 -d 2 -p cbr -e 500 -c 2 -i 3 -a 2 -x {1.0 3.1 -1 ------- null}
r -t 0.122 -s 1 -d 2 -p cbr -e 500 -c 2 -i 2 -a 2 -x {1.0 3.1 1 ------- null}
+ -t 0.122 -s 2 -d 3 -p cbr -e 500 -c 2 -i 2 -a 2 -x {1.0 3.1 1 ------- null}
- -t 0.122 -s 2 -d 3 -p cbr -e 500 -c 2 -i 2 -a 2 -x {1.0 3.1 1 ------- null}
h -t 0.122 -s 2 -d 3 -p cbr -e 500 -c 2 -i 2 -a 2 -x {1.0 3.1 -1 ------- null}
+ -t 0.13 -s 1 -d 2 -p cbr -e 500 -c 2 -i 4 -a 2 -x {1.0 3.1 3 ------- null}
- -t 0.13 -s 1 -d 2 -p cbr -e 500 -c 2 -i 4 -a 2 -x {1.0 3.1 3 ------- null}
h -t 0.13 -s 1 -d 2 -p cbr -e 500 -c 2 -i 4 -a 2 -x {1.0 3.1 -1 ------- null}
r -t 0.130266666666667 -s 2 -d 3 -p tcp -e 40 -c 1 -i 1 -a 1 -x {0.0 3.0 0 ------- null}
+ -t 0.130266666666667 -s 3 -d 2 -p ack -e 40 -c 1 -i 5 -a 1 -x {3.0 0.0 0 ------- null}
- -t 0.130266666666667 -s 3 -d 2 -p ack -e 40 -c 1 -i 5 -a 1 -x {3.0 0.0 0 ------- null}
h -t 0.130266666666667 -s 3 -d 2 -p ack -e 40 -c 1 -i 5 -a 1 -x {3.0 0.0 -1 ------- null}
r -t 0.132 -s 1 -d 2 -p cbr -e 500 -c 2 -i 3 -a 2 -x {1.0 3.1 2 ------- null}
+ -t 0.132 -s 2 -d 3 -p cbr -e 500 -c 2 -i 3 -a 2 -x {1.0 3.1 2 ------- null}
- -t 0.132 -s 2 -d 3 -p cbr -e 500 -c 2 -i 3 -a 2 -x {1.0 3.1 2 ------- null}
h -t 0.132 -s 2 -d 3 -p cbr -e 500 -c 2 -i 3 -a 2 -x {1.0 3.1 -1 ------- null}
r -t 0.133333333333333 -s 2 -d 3 -p cbr -e 500 -c 2 -i 0 -a 2 -x {1.0 3.1 0 ------- null}
+ -t 0.14 -s 1 -d 2 -p cbr -e 500 -c 2 -i 6 -a 2 -x {1.0 3.1 4 ------- null}
- -t 0.14 -s 1 -d 2 -p cbr -e 500 -c 2 -i 6 -a 2 -x {1.0 3.1 4 ------- null}
h -t 0.14 -s 1 -d 2 -p cbr -e 500 -c 2 -i 6 -a 2 -x {1.0 3.1 -1 ------- null}
r -t 0.142 -s 1 -d 2 -p cbr -e 500 -c 2 -i 4 -a 2 -x {1.0 3.1 3 ------- null}
+ -t 0.142 -s 2 -d 3 -p cbr -e 500 -c 2 -i 4 -a 2 -x {1.0 3.1 3 ------- null}
- -t 0.142 -s 2 -d 3 -p cbr -e 500 -c 2 -i 4 -a 2 -x {1.0 3.1 3 ------- null}
h -t 0.142 -s 2 -d 3 -p cbr -e 500 -c 2 -i 4 -a 2 -x {1.0 3.1 -1 ------- null}
r -t 0.143333333333333 -s 2 -d 3 -p cbr -e 500 -c 2 -i 2 -a 2 -x {1.0 3.1 1 ------- null}
+ -t 0.15 -s 1 -d 2 -p cbr -e 500 -c 2 -i 7 -a 2 -x {1.0 3.1 5 ------- null}
- -t 0.15 -s 1 -d 2 -p cbr -e 500 -c 2 -i 7 -a 2 -x {1.0 3.1 5 ------- null}
h -t 0.15 -s 1 -d 2 -p cbr -e 500 -c 2 -i 7 -a 2 -x {1.0 3.1 -1 ------- null}
r -t 0.150373333333333 -s 3 -d 2 -p ack -e 40 -c 1 -i 5 -a 1 -x {3.0 0.0 0 ------- null}
+ -t 0.150373333333333 -s 2 -d 0 -p ack -e 40 -c 1 -i 5 -a 1 -x {3.0 0.0 0 ------- null}
- -t 0.150373333333333 -s 2 -d 0 -p ack -e 40 -c 1 -i 5 -a 1 -x {3.0 0.0 0 ------- null}
h -t 0.150373333333333 -s 2 -d 0 -p ack -e 40 -c 1 -i 5 -a 1 -x {3.0 0.0 -1 ------- null}
r -t 0.152 -s 1 -d 2 -p cbr -e 500 -c 2 -i 6 -a 2 -x {1.0 3.1 4 ------- null}
+ -t 0.152 -s 2 -d 3 -p cbr -e 500 -c 2 -i 6 -a 2 -x {1.0 3.1 4 ------- null}
- -t 0.152 -s 2 -d 3 -p cbr -e 500 -c 2 -i 6 -a 2 -x {1.0 3.1 4 ------- null}
h -t 0.152 -s 2 -d 3 -p cbr -e 500 -c 2 -i 6 -a 2 -x {1.0 3.1 -1 ------- null}
r -t 0.153333333333333 -s 2 -d 3 -p cbr -e 500 -c 2 -i 3 -a 2 -x {1.0 3.1 2 ------- null}
+ -t 0.16 -s 1 -d 2 -p cbr -e 500 -c 2 -i 8 -a 2 -x {1.0 3.1 6 ------- null}
- -t 0.16 -s 1 -d 2 -p cbr -e 500 -c 2 -i 8 -a 2 -x {1.0 3.1 6 ------- null}
h -t 0.16 -s 1 -d 2 -p cbr -e 500 -c 2 -i 8 -a 2 -x {1.0 3.1 -1 ------- null}
r -t 0.160533333333333 -s 2 -d 0 -p ack -e 40 -c 1 -i 5 -a 1 -x {3.0 0.0 0 ------- null}
+ -t 0.160533333333333 -s 0 -d 2 -p tcp -e 1040 -c 1 -i 9 -a 1 -x {0.0 3.0 1 ------- null}
- -t 0.160533333333333 -s 0 -d 2 -p tcp -e 1040 -c 1 -i 9 -a 1 -x {0.0 3.0 1 ------- null}
h -t 0.160533333333333 -s 0 -d 2 -p tcp -e 1040 -c 1 -i 9 -a 1 -x {0.0 3.0 -1 ------- null}
+ -t 0.160533333333333 -s 0 -d 2 -p tcp -e 1040 -c 1 -i 10 -a 1 -x {0.0 3.0 2 ------- null}
+ -t 0.160533333333333 -s 0 -d 2 -p tcp -e 1040 -c 1 -i 11 -a 1 -x {0.0 3.0 3 ------- null}
+ -t 0.160533333333333 -s 0 -d 2 -p tcp -e 1040 -c 1 -i 12 -a 1 -x {0.0 3.0 4 ------- null}
r -t 0.162 -s 1 -d 2 -p cbr -e 500 -c 2 -i 7 -a 2 -x {1.0 3.1 5 ------- null}
+ -t 0.162 -s 2 -d 3 -p cbr -e 500 -c 2 -i 7 -a 2 -x {1.0 3.1 5 ------- null}
- -t 0.162 -s 2 -d 3 -p cbr -e 500 -c 2 -i 7 -a 2 -x {1.0 3.1 5 ------- null}
h -t 0.162 -s 2 -d 3 -p cbr -e 500 -c 2 -i 7 -a 2 -x {1.0 3.1 -1 ------- null}
r -t 0.163333333333333 -s 2 -d 3 -p cbr -e 500 -c 2 -i 4 -a 2 -x {1.0 3.1 3 ------- null}
- -t 0.164693333333333 -s 0 -d 2 -p tcp -e 1040 -c 1 -i 10 -a 1 -x {0.0 3.0 2 ------- null}
h -t 0.164693333333333 -s 0 -d 2 -p tcp -e 1040 -c 1 -i 10 -a 1 -x {0.0 3.0 -1 ------- null}
- -t 0.168853333333333 -s 0 -d 2 -p tcp -e 1040 -c 1 -i 11 -a 1 -x {0.0 3.0 3 ------- null}
h -t 0.168853333333333 -s 0 -d 2 -p tcp -e 1040 -c 1 -i 11 -a 1 -x {0.0 3.0 -1 ------- null}
+ -t 0.17 -s 1 -d 2 -p cbr -e 500 -c 2 -i 13 -a 2 -x {1.0 3.1 7 ------- null}
- -t 0.17 -s 1 -d 2 -p cbr -e 500 -c 2 -i 13 -a 2 -x {1.0 3.1 7 ------- null}
h -t 0.17 -s 1 -d 2 -p cbr -e 500 -c 2 -i 13 -a 2 -x {1.0 3.1 -1 ------- null}
r -t 0.172 -s 1 -d 2 -p cbr -e 500 -c 2 -i 8 -a 2 -x {1.0 3.1 6 ------- null}
+ -t 0.172 -s 2 -d 3 -p cbr -e 500 -c 2 -i 8 -a 2 -x {1.0 3.1 6 ------- null}
- -t 0.172 -s 2 -d 3 -p cbr -e 500 -c 2 -i 8 -a 2 -x {1.0 3.1 6 ------- null}
h -t 0.172 -s 2 -d 3 -p cbr -e 500 -c 2 -i 8 -a 2 -x {1.0 3.1 -1 ------- null}
- -t 0.173013333333333 -s 0 -d 2 -p tcp -e 1040 -c 1 -i 12 -a 1 -x {0.0 3.0 4 ------- null}
h -t 0.173013333333333 -s 0 -d 2 -p tcp -e 1040 -c 1 -i 12 -a 1 -x {0.0 3.0 -1 ------- null}
r -t 0.173333333333333 -s 2 -d 3 -p cbr -e 500 -c 2 -i 6 -a 2 -x {1.0 3.1 4 ------- null}
r -t 0.174693333333333 -s 0 -d 2 -p tcp -e 1040 -c 1 -i 9 -a 1 -x {0.0 3.0 1 ------- null}
+ -t 0.174693333333333 -s 2 -d 3 -p tcp -e 1040 -c 1 -i 9 -a 1 -x {0.0 3.0 1 ------- null}
- -t 0.174693333333333 -s 2 -d 3 -p tcp -e 1040 -c 1 -i 9 -a 1 -x {0.0 3.0 1 ------- null}
h -t 0.174693333333333 -s 2 -d 3 -p tcp -e 1040 -c 1 -i 9 -a 1 -x {0.0 3.0 -1 ------- null}
r -t 0.178853333333333 -s 0 -d 2 -p tcp -e 1040 -c 1 -i 10 -a 1 -x {0.0 3.0 2 ------- null}
+ -t 0.178853333333333 -s 2 -d 3 -p tcp -e 1040 -c 1 -i 10 -a 1 -x {0.0 3.0 2 ------- null}
- -t 0.178853333333333 -s 2 -d 3 -p tcp -e 1040 -c 1 -i 10 -a 1 -x {0.0 3.0 2 ------- null}
h -t 0.178853333333333 -s 2 -d 3 -p tcp -e 1040 -c 1 -i 10 -a 1 -x {0.0 3.0 -1 ------- null}
+ -t 0.18 -s 1 -d 2 -p cbr -e 500 -c 2 -i 14 -a 2 -x {1.0 3.1 8 ------- null}
- -t 0.18 -s 1 -d 2 -p cbr -e 500 -c 2 -i 14 -a 2 -x {1.0 3.1 8 ------- null}
h -t 0.18 -s 1 -d 2 -p cbr -e 500 -c 2 -i 14 -a 2 -x {1.0 3.1 -1 ------- null}
r -t 0.182 -s 1 -d 2 -p cbr -e 500 -c 2 -i 13 -a 2 -x {1.0 3.1 7 ------- null}
+ -t 0.182 -s 2 -d 3 -p cbr -e 500 -c 2 -i 13 -a 2 -x {1.0 3.1 7 ------- null}
- -t 0.182 -s 2 -d 3 -p cbr -e 500 -c 2 -i 13 -a 2 -x {1.0 3.1 7 ------- null}
h -t 0.182 -s 2 -d 3 -p cbr -e 500 -c 2 -i 13 -a 2 -x {1.0 3.1 -1 ------- null}
r -t 0.183013333333333 -s 0 -d 2 -p tcp -e 1040 -c 1 -i 11 -a 1 -x {0.0 3.0 3 ------- null}
+ -t 0.183013333333333 -s 2 -d 3 -p tcp -e 1040 -c 1 -i 11 -a 1 -x {0.0 3.0 3 ------- null}
r -t 0.183333333333333 -s 2 -d 3 -p cbr -e 500 -c 2 -i 7 -a 2 -x {1.0 3.1 5 ------- null}
- -t 0.183333333333333 -s 2 -d 3 -p tcp -e 1040 -c 1 -i 11 -a 1 -x {0.0 3.0 3 ------- null}
h -t 0.183333333333333 -s 2 -d 3 -p tcp -e 1040 -c 1 -i 11 -a 1 -x {0.0 3.0 -1 ------- null}
r -t 0.187173333333333 -s 0 -d 2 -p tcp -e 1040 -c 1 -i 12 -a 1 -x {0.0 3.0 4 ------- null}
+ -t 0.187173333333333 -s 2 -d 3 -p tcp -e 1040 -c 1 -i 12 -a 1 -x {0.0 3.0 4 ------- null}
- -t 0.187173333333333 -s 2 -d 3 -p tcp -e 1040 -c 1 -i 12 -a 1 -x {0.0 3.0 4 ------- null}
h -t 0.187173333333333 -s 2 -d 3 -p tcp -e 1040 -c 1 -i 12 -a 1 -x {0.0 3.0 -1 ------- null}
+ -t 0.19 -s 1 -d 2 -p cbr -e 500 -c 2 -i 15 -a 2 -x {1.0 3.1 9 ------- null}
- -t 0.19 -s 1 -d 2 -p cbr -e 500 -c 2 -i 15 -a 2 -x {1.0 3.1 9 ------- null}
h -t 0.19 -s 1 -d 2 -p cbr -e 500 -c 2 -i 15 -a 2 -x {1.0 3.1 -1 ------- null}
r -t 0.192 -s 1 -d 2 -p cbr -e 500 -c 2 -i 14 -a 2 -x {1.0 3.1 8 ------- null}
+ -t 0.192 -s 2 -d 3 -p cbr -e 500 -c 2 -i 14 -a 2 -x {1.0 3.1 8 ------- null}
- -t 0.192 -s 2 -d 3 -p cbr -e 500 -c 2 -i 14 -a 2 -x {1.0 3.1 8 ------- null}
h -t 0.192 -s 2 -d 3 -p cbr -e 500 -c 2 -i 14 -a 2 -x {1.0 3.1 -1 ------- null}
r -t 0.193333333333333 -s 2 -d 3 -p cbr -e 500 -c 2 -i 8 -a 2 -x {1.0 3.1 6 ------- null}
r -t 0.197466666666667 -s 2 -d 3 -p tcp -e 1040 -c 1 -i 9 -a 1 -x {0.0 3.0 1 ------- null}
+ -t 0.197466666666667 -s 3 -d 2 -p ack -e 40 -c 1 -i 16 -a 1 -x {3.0 0.0 1 ------- null}
- -t 0.197466666666667 -s 3 -d 2 -p ack -e 40 -c 1 -i 16 -a 1 -x {3.0 0.0 1 ------- null}
h -t 0.197466666666667 -s 3 -d 2 -p ack -e 40 -c 1 -i 16 -a 1 -x {3.0 0.0 -1 ------- null}
+ -t 0.2 -s 1 -d 2 -p cbr -e 500 -c 2 -i 17 -a 2 -x {1.0 3.1 10 ------- null}
- -t 0.2 -s 1 -d 2 -p cbr -e 500 -c 2 -i 17 -a 2 -x {1.0 3.1 10 ------- null}
h -t 0.2 -s 1 -d 2 -p cbr -e 500 -c 2 -i 17 -a 2 -x {1.0 3.1 -1 ------- null}
r -t 0.201626666666667 -s 2 -d 3 -p tcp -e 1040 -c 1 -i 10 -a 1 -x {0.0 3.0 2 ------- null}
+ -t 0.201626666666667 -s 3 -d 2 -p ack -e 40 -c 1 -i 18 -a 1 -x {3.0 0.0 2 ------- null}
- -t 0.201626666666667 -s 3 -d 2 -p ack -e 40 -c 1 -i 18 -a 1 -x {3.0 0.0 2 ------- null}
h -t 0.201626666666667 -s 3 -d 2 -p ack -e 40 -c 1 -i 18 -a 1 -x {3.0 0.0 -1 ------- null}
r -t 0.202 -s 1 -d 2 -p cbr -e 500 -c 2 -i 15 -a 2 -x {1.0 3.1 9 ------- null}
+ -t 0.202 -s 2 -d 3 -p cbr -e 500 -c 2 -i 15 -a 2 -x {1.0 3.1 9 ------- null}
- -t 0.202 -s 2 -d 3 -p cbr -e 500 -c 2 -i 15 -a 2 -x {1.0 3.1 9 ------- null}
h -t 0.202 -s 2 -d 3 -p cbr -e 500 -c 2 -i 15 -a 2 -x {1.0 3.1 -1 ------- null}
r -t 0.203333333333333 -s 2 -d 3 -p cbr -e 500 -c 2 -i 13 -a 2 -x {1.0 3.1 7 ------- null}
r -t 0.206106666666667 -s 2 -d 3 -p tcp -e 1040 -c 1 -i 11 -a 1 -x {0.0 3.0 3 ------- null}
+ -t 0.206106666666667 -s 3 -d 2 -p ack -e 40 -c 1 -i 19 -a 1 -x {3.0 0.0 3 ------- null}
- -t 0.206106666666667 -s 3 -d 2 -p ack -e 40 -c 1 -i 19 -a 1 -x {3.0 0.0 3 ------- null}
h -t 0.206106666666667 -s 3 -d 2 -p ack -e 40 -c 1 -i 19 -a 1 -x {3.0 0.0 -1 ------- null}
r -t 0.209946666666667 -s 2 -d 3 -p tcp -e 1040 -c 1 -i 12 -a 1 -x {0.0 3.0 4 ------- null}
+ -t 0.209946666666667 -s 3 -d 2 -p ack -e 40 -c 1 -i 20 -a 1 -x {3.0 0.0 4 ------- null}
- -t 0.209946666666667 -s 3 -d 2 -p ack -e 40 -c 1 -i 20 -a 1 -x {3.0 0.0 4 ------- null}
h -t 0.209946666666667 -s 3 -d 2 -p ack -e 40 -c 1 -i 20 -a 1 -x {3.0 0.0 -1 ------- null}
+ -t 0.21 -s 1 -d 2 -p cbr -e 500 -c 2 -i 21 -a 2 -x {1.0 3.1 11 ------- null}
- -t 0.21 -s 1 -d 2 -p cbr -e 500 -c 2 -i 21 -a 2 -x {1.0 3.1 11 ------- null}
h -t 0.21 -s 1 -d 2 -p cbr -e 500 -c 2 -i 21 -a 2 -x {1.0 3.1 -1 ------- null}
r -t 0.212 -s 1 -d 2 -p cbr -e 500 -c 2 -i 17 -a 2 -x {1.0 3.1 10 ------- null}
+ -t 0.212 -s 2 -d 3 -p cbr -e 500 -c 2 -i 17 -a 2 -x {1.0 3.1 10 ------- null}
- -t 0.212 -s 2 -d 3 -p cbr -e 500 -c 2 -i 17 -a 2 -x {1.0 3.1 10 ------- null}
h -t 0.212 -s 2 -d 3 -p cbr -e 500 -c 2 -i 17 -a 2 -x {1.0 3.1 -1 ------- null}
r -t 0.213333333333333 -s 2 -d 3 -p cbr -e 500 -c 2 -i 14 -a 2 -x {1.0 3.1 8 ------- null}
r -t 0.217573333333333 -s 3 -d 2 -p ack -e 40 -c 1 -i 16 -a 1 -x {3.0 0.0 1 ------- null}
+ -t 0.217573333333333 -s 2 -d 0 -p ack -e 40 -c 1 -i 16 -a 1 -x {3.0 0.0 1 ------- null}
- -t 0.217573333333333 -s 2 -d 0 -p ack -e 40 -c 1 -i 16 -a 1 -x {3.0 0.0 1 ------- null}
h -t 0.217573333333333 -s 2 -d 0 -p ack -e 40 -c 1 -i 16 -a 1 -x {3.0 0.0 -1 ------- null}
+ -t 0.22 -s 1 -d 2 -p cbr -e 500 -c 2 -i 22 -a 2 -x {1.0 3.1 12 ------- null}
- -t 0.22 -s 1 -d 2 -p cbr -e 500 -c 2 -i 22 -a 2 -x {1.0 3.1 12 ------- null}
h -t 0.22 -s 1 -d 2 -p cbr -e 500 -c 2 -i 22 -a 2 -x {1.0 3.1 -1 ------- null}
r -t 0.221733333333333 -s 3 -d 2 -p ack -e 40 -c 1 -i 18 -a 1 -x {3.0 0.0 2 ------- null}
+ -t 0.221733333333333 -s 2 -d 0 -p ack -e 40 -c 1 -i 18 -a 1 -x {3.0 0.0 2 ------- null}
- -t 0.221733333333333 -s 2 -d 0 -p ack -e 40 -c 1 -i 18 -a 1 -x {3.0 0.0 2 ------- null}
h -t 0.221733333333333 -s 2 -d 0 -p ack -e 40 -c 1 -i 18 -a 1 -x {3.0 0.0 -1 ------- null}
r -t 0.222 -s 1 -d 2 -p cbr -e 500 -c 2 -i 21 -a 2 -x {1.0 3.1 11 ------- null}
+ -t 0.222 -s 2 -d 3 -p cbr -e 500 -c 2 -i 21 -a 2 -x {1.0 3.1 11 ------- null}
- -t 0.222 -s 2 -d 3 -p cbr -e 500 -c 2 -i 21 -a 2 -x {1.0 3.1 11 ------- null}
h -t 0.222 -s 2 -d 3 -p cbr -e 500 -c 2 -i 21 -a 2 -x {1.0 3.1 -1 ------- null}
r -t 0.223333333333333 -s 2 -d 3 -p cbr -e 500 -c 2 -i 15 -a 2 -x {1.0 3.1 9 ------- null}
r -t 0.226213333333333 -s 3 -d 2 -p ack -e 40 -c 1 -i 19 -a 1 -x {3.0 0.0 3 ------- null}
+ -t 0.226213333333333 -s 2 -d 0 -p ack -e 40 -c 1 -i 19 -a 1 -x {3.0 0.0 3 ------- null}
- -t 0.226213333333333 -s 2 -d 0 -p ack -e 40 -c 1 -i 19 -a 1 -x {3.0 0.0 3 ------- null}
h -t 0.226213333333333 -s 2 -d 0 -p ack -e 40 -c 1 -i 19 -a 1 -x {3.0 0.0 -1 ------- null}
r -t 0.227733333333333 -s 2 -d 0 -p ack -e 40 -c 1 -i 16 -a 1 -x {3.0 0.0 1 ------- null}
+ -t 0.227733333333333 -s 0 -d 2 -p tcp -e 1040 -c 1 -i 23 -a 1 -x {0.0 3.0 5 ------- null}
- -t 0.227733333333333 -s 0 -d 2 -p tcp -e 1040 -c 1 -i 23 -a 1 -x {0.0 3.0 5 ------- null}
h -t 0.227733333333333 -s 0 -d 2 -p tcp -e 1040 -c 1 -i 23 -a 1 -x {0.0 3.0 -1 ------- null}
+ -t 0.23 -s 1 -d 2 -p cbr -e 500 -c 2 -i 24 -a 2 -x {1.0 3.1 13 ------- null}
- -t 0.23 -s 1 -d 2 -p cbr -e 500 -c 2 -i 24 -a 2 -x {1.0 3.1 13 ------- null}
h -t 0.23 -s 1 -d 2 -p cbr -e 500 -c 2 -i 24 -a 2 -x {1.0 3.1 -1 ------- null}
r -t 0.230053333333333 -s 3 -d 2 -p ack -e 40 -c 1 -i 20 -a 1 -x {3.0 0.0 4 ------- null}
+ -t 0.230053333333333 -s 2 -d 0 -p ack -e 40 -c 1 -i 20 -a 1 -x {3.0 0.0 4 ------- null}
- -t 0.230053333333333 -s 2 -d 0 -p ack -e 40 -c 1 -i 20 -a 1 -x {3.0 0.0 4 ------- null}
h -t 0.230053333333333 -s 2 -d 0 -p ack -e 40 -c 1 -i 20 -a 1 -x {3.0 0.0 -1 ------- null}
r -t 0.231893333333333 -s 2 -d 0 -p ack -e 40 -c 1 -i 18 -a 1 -x {3.0 0.0 2 ------- null}
+ -t 0.231893333333333 -s 0 -d 2 -p tcp -e 1040 -c 1 -i 25 -a 1 -x {0.0 3.0 6 ------- null}
- -t 0.231893333333333 -s 0 -d 2 -p tcp -e 1040 -c 1 -i 25 -a 1 -x {0.0 3.0 6 ------- null}
h -t 0.231893333333333 -s 0 -d 2 -p tcp -e 1040 -c 1 -i 25 -a 1 -x {0.0 3.0 -1 ------- null}
r -t 0.232 -s 1 -d 2 -p cbr -e 500 -c 2 -i 22 -a 2 -x {1.0 3.1 12 ------- null}
+ -t 0.232 -s 2 -d 3 -p cbr -e 500 -c 2 -i 22 -a 2 -x {1.0 3.1 12 ------- null}
- -t 0.232 -s 2 -d 3 -p cbr -e 500 -c 2 -i 22 -a 2 -x {1.0 3.1 12 ------- null}
h -t 0.232 -s 2 -d 3 -p cbr -e 500 -c 2 -i 22 -a 2 -x {1.0 3.1 -1 ------- null}
r -t 0.233333333333333 -s 2 -d 3 -p cbr -e 500 -c 2 -i 17 -a 2 -x {1.0 3.1 10 ------- null}
r -t 0.236373333333333 -s 2 -d 0 -p ack -e 40 -c 1 -i 19 -a 1 -x {3.0 0.0 3 ------- null}
+ -t 0.236373333333333 -s 0 -d 2 -p tcp -e 1040 -c 1 -i 26 -a 1 -x {0.0 3.0 7 ------- null}
- -t 0.236373333333333 -s 0 -d 2 -p tcp -e 1040 -c 1 -i 26 -a 1 -x {0.0 3.0 7 ------- null}
h -t 0.236373333333333 -s 0 -d 2 -p tcp -e 1040 -c 1 -i 26 -a 1 -x {0.0 3.0 -1 ------- null}
+ -t 0.24 -s 1 -d 2 -p cbr -e 500 -c 2 -i 27 -a 2 -x {1.0 3.1 14 ------- null}
- -t 0.24 -s 1 -d 2 -p cbr -e 500 -c 2 -i 27 -a 2 -x {1.0 3.1 14 ------- null}
h -t 0.24 -s 1 -d 2 -p cbr -e 500 -c 2 -i 27 -a 2 -x {1.0 3.1 -1 ------- null}
r -t 0.240213333333333 -s 2 -d 0 -p ack -e 40 -c 1 -i 20 -a 1 -x {3.0 0.0 4 ------- null}
+ -t 0.240213333333333 -s 0 -d 2 -p tcp -e 1040 -c 1 -i 28 -a 1 -x {0.0 3.0 8 ------- null}
- -t 0.240533333333333 -s 0 -d 2 -p tcp -e 1040 -c 1 -i 28 -a 1 -x {0.0 3.0 8 ------- null}
h -t 0.240533333333333 -s 0 -d 2 -p tcp -e 1040 -c 1 -i 28 -a 1 -x {0.0 3.0 -1 ------- null}
r -t 0.241893333333333 -s 0 -d 2 -p tcp -e 1040 -c 1 -i 23 -a 1 -x {0.0 3.0 5 ------- null}
+ -t 0.241893333333333 -s 2 -d 3 -p tcp -e 1040 -c 1 -i 23 -a 1 -x {0.0 3.0 5 ------- null}
- -t 0.241893333333333 -s 2 -d 3 -p tcp -e 1040 -c 1 -i 23 -a 1 -x {0.0 3.0 5 ------- null}
h -t 0.241893333333333 -s 2 -d 3 -p tcp -e 1040 -c 1 -i 23 -a 1 -x {0.0 3.0 -1 ------- null}
r -t 0.242 -s 1 -d 2 -p cbr -e 500 -c 2 -i 24 -a 2 -x {1.0 3.1 13 ------- null}
+ -t 0.242 -s 2 -d 3 -p cbr -e 500 -c 2 -i 24 -a 2 -x {1.0 3.1 13 ------- null}
r -t 0.243333333333333 -s 2 -d 3 -p cbr -e 500 -c 2 -i 21 -a 2 -x {1.0 3.1 11 ------- null}
- -t 0.244666666666667 -s 2 -d 3 -p cbr -e 500 -c 2 -i 24 -a 2 -x {1.0 3.1 13 ------- null}
h -t 0.244666666666667 -s 2 -d 3 -p cbr -e 500 -c 2 -i 24 -a 2 -x {1.0 3.1 -1 ------- null}
r -t 0.246053333333333 -s 0 -d 2 -p tcp -e 1040 -c 1 -i 25 -a 1 -x {0.0 3.0 6 ------- null}
+ -t 0.246053333333333 -s 2 -d 3 -p tcp -e 1040 -c 1 -i 25 -a 1 -x {0.0 3.0 6 ------- null}
- -t 0.246053333333333 -s 2 -d 3 -p tcp -e 1040 -c 1 -i 25 -a 1 -x {0.0 3.0 6 ------- null}
h -t 0.246053333333333 -s 2 -d 3 -p tcp -e 1040 -c 1 -i 25 -a 1 -x {0.0 3.0 -1 ------- null}
+ -t 0.25 -s 1 -d 2 -p cbr -e 500 -c 2 -i 29 -a 2 -x {1.0 3.1 15 ------- null}
- -t 0.25 -s 1 -d 2 -p cbr -e 500 -c 2 -i 29 -a 2 -x {1.0 3.1 15 ------- null}
h -t 0.25 -s 1 -d 2 -p cbr -e 500 -c 2 -i 29 -a 2 -x {1.0 3.1 -1 ------- null}
r -t 0.250533333333333 -s 0 -d 2 -p tcp -e 1040 -c 1 -i 26 -a 1 -x {0.0 3.0 7 ------- null}
+ -t 0.250533333333333 -s 2 -d 3 -p tcp -e 1040 -c 1 -i 26 -a 1 -x {0.0 3.0 7 ------- null}
- -t 0.250533333333333 -s 2 -d 3 -p tcp -e 1040 -c 1 -i 26 -a 1 -x {0.0 3.0 7 ------- null}
h -t 0.250533333333333 -s 2 -d 3 -p tcp -e 1040 -c 1 -i 26 -a 1 -x {0.0 3.0 -1 ------- null}
r -t 0.252 -s 1 -d 2 -p cbr -e 500 -c 2 -i 27 -a 2 -x {1.0 3.1 14 ------- null}
+ -t 0.252 -s 2 -d 3 -p cbr -e 500 -c 2 -i 27 -a 2 -x {1.0 3.1 14 ------- null}
- -t 0.253306666666667 -s 2 -d 3 -p cbr -e 500 -c 2 -i 27 -a 2 -x {1.0 3.1 14 ------- null}
h -t 0.253306666666667 -s 2 -d 3 -p cbr -e 500 -c 2 -i 27 -a 2 -x {1.0 3.1 -1 ------- null}
r -t 0.253333333333333 -s 2 -d 3 -p cbr -e 500 -c 2 -i 22 -a 2 -x {1.0 3.1 12 ------- null}
r -t 0.254693333333333 -s 0 -d 2 -p tcp -e 1040 -c 1 -i 28 -a 1 -x {0.0 3.0 8 ------- null}
+ -t 0.254693333333333 -s 2 -d 3 -p tcp -e 1040 -c 1 -i 28 -a 1 -x {0.0 3.0 8 ------- null}
- -t 0.254693333333333 -s 2 -d 3 -p tcp -e 1040 -c 1 -i 28 -a 1 -x {0.0 3.0 8 ------- null}
h -t 0.254693333333333 -s 2 -d 3 -p tcp -e 1040 -c 1 -i 28 -a 1 -x {0.0 3.0 -1 ------- null}
+ -t 0.26 -s 1 -d 2 -p cbr -e 500 -c 2 -i 30 -a 2 -x {1.0 3.1 16 ------- null}
- -t 0.26 -s 1 -d 2 -p cbr -e 500 -c 2 -i 30 -a 2 -x {1.0 3.1 16 ------- null}
h -t 0.26 -s 1 -d 2 -p cbr -e 500 -c 2 -i 30 -a 2 -x {1.0 3.1 -1 ------- null}
r -t 0.262 -s 1 -d 2 -p cbr -e 500 -c 2 -i 29 -a 2 -x {1.0 3.1 15 ------- null}
+ -t 0.262 -s 2 -d 3 -p cbr -e 500 -c 2 -i 29 -a 2 -x {1.0 3.1 15 ------- null}
- -t 0.262 -s 2 -d 3 -p cbr -e 500 -c 2 -i 29 -a 2 -x {1.0 3.1 15 ------- null}
h -t 0.262 -s 2 -d 3 -p cbr -e 500 -c 2 -i 29 -a 2 -x {1.0 3.1 -1 ------- null}
r -t 0.264666666666667 -s 2 -d 3 -p tcp -e 1040 -c 1 -i 23 -a 1 -x {0.0 3.0 5 ------- null}
+ -t 0.264666666666667 -s 3 -d 2 -p ack -e 40 -c 1 -i 31 -a 1 -x {3.0 0.0 5 ------- null}
- -t 0.264666666666667 -s 3 -d 2 -p ack -e 40 -c 1 -i 31 -a 1 -x {3.0 0.0 5 ------- null}
h -t 0.264666666666667 -s 3 -d 2 -p ack -e 40 -c 1 -i 31 -a 1 -x {3.0 0.0 -1 ------- null}
r -t 0.266 -s 2 -d 3 -p cbr -e 500 -c 2 -i 24 -a 2 -x {1.0 3.1 13 ------- null}
r -t 0.268826666666667 -s 2 -d 3 -p tcp -e 1040 -c 1 -i 25 -a 1 -x {0.0 3.0 6 ------- null}
+ -t 0.268826666666667 -s 3 -d 2 -p ack -e 40 -c 1 -i 32 -a 1 -x {3.0 0.0 6 ------- null}
- -t 0.268826666666667 -s 3 -d 2 -p ack -e 40 -c 1 -i 32 -a 1 -x {3.0 0.0 6 ------- null}
h -t 0.268826666666667 -s 3 -d 2 -p ack -e 40 -c 1 -i 32 -a 1 -x {3.0 0.0 -1 ------- null}
+ -t 0.27 -s 1 -d 2 -p cbr -e 500 -c 2 -i 33 -a 2 -x {1.0 3.1 17 ------- null}
- -t 0.27 -s 1 -d 2 -p cbr -e 500 -c 2 -i 33 -a 2 -x {1.0 3.1 17 ------- null}
h -t 0.27 -s 1 -d 2 -p cbr -e 500 -c 2 -i 33 -a 2 -x {1.0 3.1 -1 ------- null}
r -t 0.272 -s 1 -d 2 -p cbr -e 500 -c 2 -i 30 -a 2 -x {1.0 3.1 16 ------- null}
+ -t 0.272 -s 2 -d 3 -p cbr -e 500 -c 2 -i 30 -a 2 -x {1.0 3.1 16 ------- null}
- -t 0.272 -s 2 -d 3 -p cbr -e 500 -c 2 -i 30 -a 2 -x {1.0 3.1 16 ------- null}
h -t 0.272 -s 2 -d 3 -p cbr -e 500 -c 2 -i 30 -a 2 -x {1.0 3.1 -1 ------- null}
r -t 0.273306666666667 -s 2 -d 3 -p tcp -e 1040 -c 1 -i 26 -a 1 -x {0.0 3.0 7 ------- null}
+ -t 0.273306666666667 -s 3 -d 2 -p ack -e 40 -c 1 -i 34 -a 1 -x {3.0 0.0 7 ------- null}
- -t 0.273306666666667 -s 3 -d 2 -p ack -e 40 -c 1 -i 34 -a 1 -x {3.0 0.0 7 ------- null}
h -t 0.273306666666667 -s 3 -d 2 -p ack -e 40 -c 1 -i 34 -a 1 -x {3.0 0.0 -1 ------- null}
r -t 0.27464 -s 2 -d 3 -p cbr -e 500 -c 2 -i 27 -a 2 -x {1.0 3.1 14 ------- null}
r -t 0.277466666666667 -s 2 -d 3 -p tcp -e 1040 -c 1 -i 28 -a 1 -x {0.0 3.0 8 ------- null}
+ -t 0.277466666666667 -s 3 -d 2 -p ack -e 40 -c 1 -i 35 -a 1 -x {3.0 0.0 8 ------- null}
- -t 0.277466666666667 -s 3 -d 2 -p ack -e 40 -c 1 -i 35 -a 1 -x {3.0 0.0 8 ------- null}
h -t 0.277466666666667 -s 3 -d 2 -p ack -e 40 -c 1 -i 35 -a 1 -x {3.0 0.0 -1 ------- null}
+ -t 0.28 -s 1 -d 2 -p cbr -e 500 -c 2 -i 36 -a 2 -x {1.0 3.1 18 ------- null}
- -t 0.28 -s 1 -d 2 -p cbr -e 500 -c 2 -i 36 -a 2 -x {1.0 3.1 18 ------- null}
h -t 0.28 -s 1 -d 2 -p cbr -e 500 -c 2 -i 36 -a 2 -x {1.0 3.1 -1 ------- null}
r -t 0.282 -s 1 -d 2 -p cbr -e 500 -c 2 -i 33 -a 2 -x {1.0 3.1 17 ------- null}
+ -t 0.282 -s 2 -d 3 -p cbr -e 500 -c 2 -i 33 -a 2 -x {1.0 3.1 17 ------- null}
- -t 0.282 -s 2 -d 3 -p cbr -e 500 -c 2 -i 33 -a 2 -x {1.0 3.1 17 ------- null}
h -t 0.282 -s 2 -d 3 -p cbr -e 500 -c 2 -i 33 -a 2 -x {1.0 3.1 -1 ------- null}
r -t 0.283333333333333 -s 2 -d 3 -p cbr -e 500 -c 2 -i 29 -a 2 -x {1.0 3.1 15 ------- null}
r -t 0.284773333333333 -s 3 -d 2 -p ack -e 40 -c 1 -i 31 -a 1 -x {3.0 0.0 5 ------- null}
+ -t 0.284773333333333 -s 2 -d 0 -p ack -e 40 -c 1 -i 31 -a 1 -x {3.0 0.0 5 ------- null}
- -t 0.284773333333333 -s 2 -d 0 -p ack -e 40 -c 1 -i 31 -a 1 -x {3.0 0.0 5 ------- null}
h -t 0.284773333333333 -s 2 -d 0 -p ack -e 40 -c 1 -i 31 -a 1 -x {3.0 0.0 -1 ------- null}
r -t 0.288933333333333 -s 3 -d 2 -p ack -e 40 -c 1 -i 32 -a 1 -x {3.0 0.0 6 ------- null}
+ -t 0.288933333333333 -s 2 -d 0 -p ack -e 40 -c 1 -i 32 -a 1 -x {3.0 0.0 6 ------- null}
- -t 0.288933333333333 -s 2 -d 0 -p ack -e 40 -c 1 -i 32 -a 1 -x {3.0 0.0 6 ------- null}
h -t 0.288933333333333 -s 2 -d 0 -p ack -e 40 -c 1 -i 32 -a 1 -x {3.0 0.0 -1 ------- null}
+ -t 0.29 -s 1 -d 2 -p cbr -e 500 -c 2 -i 37 -a 2 -x {1.0 3.1 19 ------- null}
- -t 0.29 -s 1 -d 2 -p cbr -e 500 -c 2 -i 37 -a 2 -x {1.0 3.1 19 ------- null}
h -t 0.29 -s 1 -d 2 -p cbr -e 500 -c 2 -i 37 -a 2 -x {1.0 3.1 -1 ------- null}
r -t 0.292 -s 1 -d 2 -p cbr -e 500 -c 2 -i 36 -a 2 -x {1.0 3.1 18 ------- null}
+ -t 0.292 -s 2 -d 3 -p cbr -e 500 -c 2 -i 36 -a 2 -x {1.0 3.1 18 ------- null}
- -t 0.292 -s 2 -d 3 -p cbr -e 500 -c 2 -i 36 -a 2 -x {1.0 3.1 18 ------- null}
h -t 0.292 -s 2 -d 3 -p cbr -e 500 -c 2 -i 36 -a 2 -x {1.0 3.1 -1 ------- null}
r -t 0.293333333333333 -s 2 -d 3 -p cbr -e 500 -c 2 -i 30 -a 2 -x {1.0 3.1 16 ------- null}
r -t 0.293413333333333 -s 3 -d 2 -p ack -e 40 -c 1 -i 34 -a 1 -x {3.0 0.0 7 ------- null}
+ -t 0.293413333333333 -s 2 -d 0 -p ack -e 40 -c 1 -i 34 -a 1 -x {3.0 0.0 7 ------- null}
- -t 0.293413333333333 -s 2 -d 0 -p ack -e 40 -c 1 -i 34 -a 1 -x {3.0 0.0 7 ------- null}
h -t 0.293413333333333 -s 2 -d 0 -p ack -e 40 -c 1 -i 34 -a 1 -x {3.0 0.0 -1 ------- null}
r -t 0.294933333333333 -s 2 -d 0 -p ack -e 40 -c 1 -i 31 -a 1 -x {3.0 0.0 5 ------- null}
+ -t 0.294933333333333 -s 0 -d 2 -p tcp -e 1040 -c 1 -i 38 -a 1 -x {0.0 3.0 9 ------- null}
- -t 0.294933333333333 -s 0 -d 2 -p tcp -e 1040 -c 1 -i 38 -a 1 -x {0.0 3.0 9 ------- null}
h -t 0.294933333333333 -s 0 -d 2 -p tcp -e 1040 -c 1 -i 38 -a 1 -x {0.0 3.0 -1 ------- null}
r -t 0.297573333333333 -s 3 -d 2 -p ack -e 40 -c 1 -i 35 -a 1 -x {3.0 0.0 8 ------- null}
+ -t 0.297573333333333 -s 2 -d 0 -p ack -e 40 -c 1 -i 35 -a 1 -x {3.0 0.0 8 ------- null}
- -t 0.297573333333333 -s 2 -d 0 -p ack -e 40 -c 1 -i 35 -a 1 -x {3.0 0.0 8 ------- null}
h -t 0.297573333333333 -s 2 -d 0 -p ack -e 40 -c 1 -i 35 -a 1 -x {3.0 0.0 -1 ------- null}
r -t 0.299093333333333 -s 2 -d 0 -p ack -e 40 -c 1 -i 32 -a 1 -x {3.0 0.0 6 ------- null}
+ -t 0.299093333333333 -s 0 -d 2 -p tcp -e 1040 -c 1 -i 39 -a 1 -x {0.0 3.0 10 ------- null}
- -t 0.299093333333333 -s 0 -d 2 -p tcp -e 1040 -c 1 -i 39 -a 1 -x {0.0 3.0 10 ------- null}
h -t 0.299093333333333 -s 0 -d 2 -p tcp -e 1040 -c 1 -i 39 -a 1 -x {0.0 3.0 -1 ------- null}
+ -t 0.3 -s 1 -d 2 -p cbr -e 500 -c 2 -i 40 -a 2 -x {1.0 3.1 20 ------- null}
- -t 0.3 -s 1 -d 2 -p cbr -e 500 -c 2 -i 40 -a 2 -x {1.0 3.1 20 ------- null}
h -t 0.3 -s 1 -d 2 -p cbr -e 500 -c 2 -i 40 -a 2 -x {1.0 3.1 -1 ------- null}
r -t 0.302 -s 1 -d 2 -p cbr -e 500 -c 2 -i 37 -a 2 -x {1.0 3.1 19 ------- null}
+ -t 0.302 -s 2 -d 3 -p cbr -e 500 -c 2 -i 37 -a 2 -x {1.0 3.1 19 ------- null}
- -t 0.302 -s 2 -d 3 -p cbr -e 500 -c 2 -i 37 -a 2 -x {1.0 3.1 19 ------- null}
h -t 0.302 -s 2 -d 3 -p cbr -e 500 -c 2 -i 37 -a 2 -x {1.0 3.1 -1 ------- null}
r -t 0.303333333333333 -s 2 -d 3 -p cbr -e 500 -c 2 -i 33 -a 2 -x {1.0 3.1 17 ------- null}
r -t 0.303573333333333 -s 2 -d 0 -p ack -e 40 -c 1 -i 34 -a 1 -x {3.0 0.0 7 ------- null}
+ -t 0.303573333333333 -s 0 -d 2 -p tcp -e 1040 -c 1 -i 41 -a 1 -x {0.0 3.0 11 ------- null}
- -t 0.303573333333333 -s 0 -d 2 -p tcp -e 1040 -c 1 -i 41 -a 1 -x {0.0 3.0 11 ------- null}
h -t 0.303573333333333 -s 0 -d 2 -p tcp -e 1040 -c 1 -i 41 -a 1 -x {0.0 3.0 -1 ------- null}
r -t 0.307733333333333 -s 2 -d 0 -p ack -e 40 -c 1 -i 35 -a 1 -x {3.0 0.0 8 ------- null}
+ -t 0.307733333333333 -s 0 -d 2 -p tcp -e 1040 -c 1 -i 42 -a 1 -x {0.0 3.0 12 ------- null}
- -t 0.307733333333333 -s 0 -d 2 -p tcp -e 1040 -c 1 -i 42 -a 1 -x {0.0 3.0 12 ------- null}
h -t 0.307733333333333 -s 0 -d 2 -p tcp -e 1040 -c 1 -i 42 -a 1 -x {0.0 3.0 -1 ------- null}
r -t 0.309093333333333 -s 0 -d 2 -p tcp -e 1040 -c 1 -i 38 -a 1 -x {0.0 3.0 9 ------- null}
+ -t 0.309093333333333 -s 2 -d 3 -p tcp -e 1040 -c 1 -i 38 -a 1 -x {0.0 3.0 9 ------- null}
- -t 0.309093333333333 -s 2 -d 3 -p tcp -e 1040 -c 1 -i 38 -a 1 -x {0.0 3.0 9 ------- null}
h -t 0.309093333333333 -s 2 -d 3 -p tcp -e 1040 -c 1 -i 38 -a 1 -x {0.0 3.0 -1 ------- null}
+ -t 0.31 -s 1 -d 2 -p cbr -e 500 -c 2 -i 43 -a 2 -x {1.0 3.1 21 ------- null}
- -t 0.31 -s 1 -d 2 -p cbr -e 500 -c 2 -i 43 -a 2 -x {1.0 3.1 21 ------- null}
h -t 0.31 -s 1 -d 2 -p cbr -e 500 -c 2 -i 43 -a 2 -x {1.0 3.1 -1 ------- null}
r -t 0.312 -s 1 -d 2 -p cbr -e 500 -c 2 -i 40 -a 2 -x {1.0 3.1 20 ------- null}
+ -t 0.312 -s 2 -d 3 -p cbr -e 500 -c 2 -i 40 -a 2 -x {1.0 3.1 20 ------- null}
- -t 0.312 -s 2 -d 3 -p cbr -e 500 -c 2 -i 40 -a 2 -x {1.0 3.1 20 ------- null}
h -t 0.312 -s 2 -d 3 -p cbr -e 500 -c 2 -i 40 -a 2 -x {1.0 3.1 -1 ------- null}
r -t 0.313253333333333 -s 0 -d 2 -p tcp -e 1040 -c 1 -i 39 -a 1 -x {0.0 3.0 10 ------- null}
+ -t 0.313253333333333 -s 2 -d 3 -p tcp -e 1040 -c 1 -i 39 -a 1 -x {0.0 3.0 10 ------- null}
r -t 0.313333333333333 -s 2 -d 3 -p cbr -e 500 -c 2 -i 36 -a 2 -x {1.0 3.1 18 ------- null}
- -t 0.313333333333334 -s 2 -d 3 -p tcp -e 1040 -c 1 -i 39 -a 1 -x {0.0 3.0 10 ------- null}
h -t 0.313333333333334 -s 2 -d 3 -p tcp -e 1040 -c 1 -i 39 -a 1 -x {0.0 3.0 -1 ------- null}
r -t 0.317733333333333 -s 0 -d 2 -p tcp -e 1040 -c 1 -i 41 -a 1 -x {0.0 3.0 11 ------- null}
+ -t 0.317733333333333 -s 2 -d 3 -p tcp -e 1040 -c 1 -i 41 -a 1 -x {0.0 3.0 11 ------- null}
- -t 0.317733333333333 -s 2 -d 3 -p tcp -e 1040 -c 1 -i 41 -a 1 -x {0.0 3.0 11 ------- null}
h -t 0.317733333333333 -s 2 -d 3 -p tcp -e 1040 -c 1 -i 41 -a 1 -x {0.0 3.0 -1 ------- null}
+ -t 0.32 -s 1 -d 2 -p cbr -e 500 -c 2 -i 44 -a 2 -x {1.0 3.1 22 ------- null}
- -t 0.32 -s 1 -d 2 -p cbr -e 500 -c 2 -i 44 -a 2 -x {1.0 3.1 22 ------- null}
h -t 0.32 -s 1 -d 2 -p cbr -e 500 -c 2 -i 44 -a 2 -x {1.0 3.1 -1 ------- null}
r -t 0.321893333333333 -s 0 -d 2 -p tcp -e 1040 -c 1 -i 42 -a 1 -x {0.0 3.0 12 ------- null}
+ -t 0.321893333333333 -s 2 -d 3 -p tcp -e 1040 -c 1 -i 42 -a 1 -x {0.0 3.0 12 ------- null}