+ 0.1 1 2 cbr 500 ------- 2 1.0 3.1 0 0
- 0.1 1 2 cbr 500 ------- 2 1.0 3.1 0 0
+ 0.1 0 2 tcp 40 ------- 1 0.0 3.0 0 1
- 0.1 0 2 tcp 40 ------- 1 0.0 3.0 0 1
+ 0.11 1 2 cbr 500 ------- 2 1.0 3.1 1 2
- 0.11 1 2 cbr 500 ------- 2 1.0 3.1 1 2
r 0.11016 0 2 tcp 40 ------- 1 0.0 3.0 0 1
+ 0.11016 2 3 tcp 40 ------- 1 0.0 3.0 0 1
- 0.11016 2 3 tcp 40 ------- 1 0.0 3.0 0 1
r 0.112 1 2 cbr 500 ------- 2 1.0 3.1 0 0
+ 0.112 2 3 cbr 500 ------- 2 1.0 3.1 0 0
- 0.112 2 3 cbr 500 ------- 2 1.0 3.1 0 0
+ 0.12 1 2 cbr 500 ------- 2 1.0 3.1 2 3
- 0.12 1 2 cbr 500 ------- 2 1.0 3.1 2 3
r 0.122 1 2 cbr 500 ------- 2 1.0 3.1 1 2
+ 0.122 2 3 cbr 500 ------- 2 1.0 3.1 1 2
- 0.122 2 3 cbr 500 ------- 2 1.0 3.1 1 2
+ 0.13 1 2 cbr 500 ------- 2 1.0 3.1 3 4
- 0.13 1 2 cbr 500 ------- 2 1.0 3.1 3 4
r 0.130267 2 3 tcp 40 ------- 1 0.0 3.0 0 1
+ 0.130267 3 2 ack 40 ------- 1 3.0 0.0 0 5
- 0.130267 3 2 ack 40 ------- 1 3.0 0.0 0 5
r 0.132 1 2 cbr 500 ------- 2 1.0 3.1 2 3
+ 0.132 2 3 cbr 500 ------- 2 1.0 3.1 2 3
- 0.132 2 3 cbr 500 ------- 2 1.0 3.1 2 3
r 0.133333 2 3 cbr 500 ------- 2 1.0 3.1 0 0
+ 0.14 1 2 cbr 500 ------- 2 1.0 3.1 4 6
- 0.14 1 2 cbr 500 ------- 2 1.0 3.1 4 6
r 0.142 1 2 cbr 500 ------- 2 1.0 3.1 3 4
+ 0.142 2 3 cbr 500 ------- 2 1.0 3.1 3 4
- 0.142 2 3 cbr 500 ------- 2 1.0 3.1 3 4
r 0.143333 2 3 cbr 500 ------- 2 1.0 3.1 1 2
+ 0.15 1 2 cbr 500 ------- 2 1.0 3.1 5 7
- 0.15 1 2 cbr 500 ------- 2 1.0 3.1 5 7
r 0.150373 3 2 ack 40 ------- 1 3.0 0.0 0 5
+ 0.150373 2 0 ack 40 ------- 1 3.0 0.0 0 5
- 0.150373 2 0 ack 40 ------- 1 3.0 0.0 0 5
r 0.152 1 2 cbr 500 ------- 2 1.0 3.1 4 6
+ 0.152 2 3 cbr 500 ------- 2 1.0 3.1 4 6
- 0.152 2 3 cbr 500 ------- 2 1.0 3.1 4 6
r 0.153333 2 3 cbr 500 ------- 2 1.0 3.1 2 3
+ 0.16 1 2 cbr 500 ------- 2 1.0 3.1 6 8
- 0.16 1 2 cbr 500 ------- 2 1.0 3.1 6 8
r 0.160533 2 0 ack 40 ------- 1 3.0 0.0 0 5
+ 0.160533 0 2 tcp 1040 ------- 1 0.0 3.0 1 9
- 0.160533 0 2 tcp 1040 ------- 1 0.0 3.0 1 9
+ 0.160533 0 2 tcp 1040 ------- 1 0.0 3.0 2 10
+ 0.160533 0 2 tcp 1040 ------- 1 0.0 3.0 3 11
+ 0.160533 0 2 tcp 1040 ------- 1 0.0 3.0 4 12
r 0.162 1 2 cbr 500 ------- 2 1.0 3.1 5 7
+ 0.162 2 3 cbr 500 ------- 2 1.0 3.1 5 7
- 0.162 2 3 cbr 500 ------- 2 1.0 3.1 5 7
r 0.163333 2 3 cbr 500 ------- 2 1.0 3.1 3 4
- 0.164693 0 2 tcp 1040 ------- 1 0.0 3.0 2 10
- 0.168853 0 2 tcp 1040 ------- 1 0.0 3.0 3 11
+ 0.17 1 2 cbr 500 ------- 2 1.0 3.1 7 13
- 0.17 1 2 cbr 500 ------- 2 1.0 3.1 7 13
r 0.172 1 2 cbr 500 ------- 2 1.0 3.1 6 8
+ 0.172 2 3 cbr 500 ------- 2 1.0 3.1 6 8
- 0.172 2 3 cbr 500 ------- 2 1.0 3.1 6 8
- 0.173013 0 2 tcp 1040 ------- 1 0.0 3.0 4 12
r 0.173333 2 3 cbr 500 ------- 2 1.0 3.1 4 6
r 0.174693 0 2 tcp 1040 ------- 1 0.0 3.0 1 9
+ 0.174693 2 3 tcp 1040 ------- 1 0.0 3.0 1 9
- 0.174693 2 3 tcp 1040 ------- 1 0.0 3.0 1 9
r 0.178853 0 2 tcp 1040 ------- 1 0.0 3.0 2 10
+ 0.178853 2 3 tcp 1040 ------- 1 0.0 3.0 2 10
- 0.178853 2 3 tcp 1040 ------- 1 0.0 3.0 2 10
+ 0.18 1 2 cbr 500 ------- 2 1.0 3.1 8 14
- 0.18 1 2 cbr 500 ------- 2 1.0 3.1 8 14
r 0.182 1 2 cbr 500 ------- 2 1.0 3.1 7 13
+ 0.182 2 3 cbr 500 ------- 2 1.0 3.1 7 13
- 0.182 2 3 cbr 500 ------- 2 1.0 3.1 7 13
r 0.183013 0 2 tcp 1040 ------- 1 0.0 3.0 3 11
+ 0.183013 2 3 tcp 1040 ------- 1 0.0 3.0 3 11
r 0.183333 2 3 cbr 500 ------- 2 1.0 3.1 5 7
- 0.183333 2 3 tcp 1040 ------- 1 0.0 3.0 3 11
r 0.187173 0 2 tcp 1040 ------- 1 0.0 3.0 4 12
+ 0.187173 2 3 tcp 1040 ------- 1 0.0 3.0 4 12
- 0.187173 2 3 tcp 1040 ------- 1 0.0 3.0 4 12
+ 0.19 1 2 cbr 500 ------- 2 1.0 3.1 9 15
- 0.19 1 2 cbr 500 ------- 2 1.0 3.1 9 15
r 0.192 1 2 cbr 500 ------- 2 1.0 3.1 8 14
+ 0.192 2 3 cbr 500 ------- 2 1.0 3.1 8 14
- 0.192 2 3 cbr 500 ------- 2 1.0 3.1 8 14
r 0.193333 2 3 cbr 500 ------- 2 1.0 3.1 6 8
r 0.197467 2 3 tcp 1040 ------- 1 0.0 3.0 1 9
+ 0.197467 3 2 ack 40 ------- 1 3.0 0.0 1 16
- 0.197467 3 2 ack 40 ------- 1 3.0 0.0 1 16
+ 0.2 1 2 cbr 500 ------- 2 1.0 3.1 10 17
- 0.2 1 2 cbr 500 ------- 2 1.0 3.1 10 17
r 0.201627 2 3 tcp 1040 ------- 1 0.0 3.0 2 10
+ 0.201627 3 2 ack 40 ------- 1 3.0 0.0 2 18
- 0.201627 3 2 ack 40 ------- 1 3.0 0.0 2 18
r 0.202 1 2 cbr 500 ------- 2 1.0 3.1 9 15
+ 0.202 2 3 cbr 500 ------- 2 1.0 3.1 9 15
- 0.202 2 3 cbr 500 ------- 2 1.0 3.1 9 15
r 0.203333 2 3 cbr 500 ------- 2 1.0 3.1 7 13
r 0.206107 2 3 tcp 1040 ------- 1 0.0 3.0 3 11
+ 0.206107 3 2 ack 40 ------- 1 3.0 0.0 3 19
- 0.206107 3 2 ack 40 ------- 1 3.0 0.0 3 19
r 0.209947 2 3 tcp 1040 ------- 1 0.0 3.0 4 12
+ 0.209947 3 2 ack 40 ------- 1 3.0 0.0 4 20
- 0.209947 3 2 ack 40 ------- 1 3.0 0.0 4 20
+ 0.21 1 2 cbr 500 ------- 2 1.0 3.1 11 21
- 0.21 1 2 cbr 500 ------- 2 1.0 3.1 11 21
r 0.212 1 2 cbr 500 ------- 2 1.0 3.1 10 17
+ 0.212 2 3 cbr 500 ------- 2 1.0 3.1 10 17
- 0.212 2 3 cbr 500 ------- 2 1.0 3.1 10 17
r 0.213333 2 3 cbr 500 ------- 2 1.0 3.1 8 14
r 0.217573 3 2 ack 40 ------- 1 3.0 0.0 1 16
+ 0.217573 2 0 ack 40 ------- 1 3.0 0.0 1 16
- 0.217573 2 0 ack 40 ------- 1 3.0 0.0 1 16
+ 0.22 1 2 cbr 500 ------- 2 1.0 3.1 12 22
- 0.22 1 2 cbr 500 ------- 2 1.0 3.1 12 22
r 0.221733 3 2 ack 40 ------- 1 3.0 0.0 2 18
+ 0.221733 2 0 ack 40 ------- 1 3.0 0.0 2 18
- 0.221733 2 0 ack 40 ------- 1 3.0 0.0 2 18
r 0.222 1 2 cbr 500 ------- 2 1.0 3.1 11 21
+ 0.222 2 3 cbr 500 ------- 2 1.0 3.1 11 21
- 0.222 2 3 cbr 500 ------- 2 1.0 3.1 11 21
r 0.223333 2 3 cbr 500 ------- 2 1.0 3.1 9 15
r 0.226213 3 2 ack 40 ------- 1 3.0 0.0 3 19
+ 0.226213 2 0 ack 40 ------- 1 3.0 0.0 3 19
- 0.226213 2 0 ack 40 ------- 1 3.0 0.0 3 19
r 0.227733 2 0 ack 40 ------- 1 3.0 0.0 1 16
+ 0.227733 0 2 tcp 1040 ------- 1 0.0 3.0 5 23
- 0.227733 0 2 tcp 1040 ------- 1 0.0 3.0 5 23
+ 0.23 1 2 cbr 500 ------- 2 1.0 3.1 13 24
- 0.23 1 2 cbr 500 ------- 2 1.0 3.1 13 24
r 0.230053 3 2 ack 40 ------- 1 3.0 0.0 4 20
+ 0.230053 2 0 ack 40 ------- 1 3.0 0.0 4 20
- 0.230053 2 0 ack 40 ------- 1 3.0 0.0 4 20
r 0.231893 2 0 ack 40 ------- 1 3.0 0.0 2 18
+ 0.231893 0 2 tcp 1040 ------- 1 0.0 3.0 6 25
- 0.231893 0 2 tcp 1040 ------- 1 0.0 3.0 6 25
r 0.232 1 2 cbr 500 ------- 2 1.0 3.1 12 22
+ 0.232 2 3 cbr 500 ------- 2 1.0 3.1 12 22
- 0.232 2 3 cbr 500 ------- 2 1.0 3.1 12 22
r 0.233333 2 3 cbr 500 ------- 2 1.0 3.1 10 17
r 0.236373 2 0 ack 40 ------- 1 3.0 0.0 3 19
+ 0.236373 0 2 tcp 1040 ------- 1 0.0 3.0 7 26
- 0.236373 0 2 tcp 1040 ------- 1 0.0 3.0 7 26
+ 0.24 1 2 cbr 500 ------- 2 1.0 3.1 14 27
- 0.24 1 2 cbr 500 ------- 2 1.0 3.1 14 27
r 0.240213 2 0 ack 40 ------- 1 3.0 0.0 4 20
+ 0.240213 0 2 tcp 1040 ------- 1 0.0 3.0 8 28
- 0.240533 0 2 tcp 1040 ------- 1 0.0 3.0 8 28
r 0.241893 0 2 tcp 1040 ------- 1 0.0 3.0 5 23
+ 0.241893 2 3 tcp 1040 ------- 1 0.0 3.0 5 23
- 0.241893 2 3 tcp 1040 ------- 1 0.0 3.0 5 23
r 0.242 1 2 cbr 500 ------- 2 1.0 3.1 13 24
+ 0.242 2 3 cbr 500 ------- 2 1.0 3.1 13 24
r 0.243333 2 3 cbr 500 ------- 2 1.0 3.1 11 21
- 0.244667 2 3 cbr 500 ------- 2 1.0 3.1 13 24
r 0.246053 0 2 tcp 1040 ------- 1 0.0 3.0 6 25
+ 0.246053 2 3 tcp 1040 ------- 1 0.0 3.0 6 25
- 0.246053 2 3 tcp 1040 ------- 1 0.0 3.0 6 25
+ 0.25 1 2 cbr 500 ------- 2 1.0 3.1 15 29
- 0.25 1 2 cbr 500 ------- 2 1.0 3.1 15 29
r 0.250533 0 2 tcp 1040 ------- 1 0.0 3.0 7 26
+ 0.250533 2 3 tcp 1040 ------- 1 0.0 3.0 7 26
- 0.250533 2 3 tcp 1040 ------- 1 0.0 3.0 7 26
r 0.252 1 2 cbr 500 ------- 2 1.0 3.1 14 27
+ 0.252 2 3 cbr 500 ------- 2 1.0 3.1 14 27
- 0.253307 2 3 cbr 500 ------- 2 1.0 3.1 14 27
r 0.253333 2 3 cbr 500 ------- 2 1.0 3.1 12 22
r 0.254693 0 2 tcp 1040 ------- 1 0.0 3.0 8 28
+ 0.254693 2 3 tcp 1040 ------- 1 0.0 3.0 8 28
- 0.254693 2 3 tcp 1040 ------- 1 0.0 3.0 8 28
+ 0.26 1 2 cbr 500 ------- 2 1.0 3.1 16 30
- 0.26 1 2 cbr 500 ------- 2 1.0 3.1 16 30
r 0.262 1 2 cbr 500 ------- 2 1.0 3.1 15 29
+ 0.262 2 3 cbr 500 ------- 2 1.0 3.1 15 29
- 0.262 2 3 cbr 500 ------- 2 1.0 3.1 15 29
r 0.264667 2 3 tcp 1040 ------- 1 0.0 3.0 5 23
+ 0.264667 3 2 ack 40 ------- 1 3.0 0.0 5 31
- 0.264667 3 2 ack 40 ------- 1 3.0 0.0 5 31
r 0.266 2 3 cbr 500 ------- 2 1.0 3.1 13 24
r 0.268827 2 3 tcp 1040 ------- 1 0.0 3.0 6 25
+ 0.268827 3 2 ack 40 ------- 1 3.0 0.0 6 32
- 0.268827 3 2 ack 40 ------- 1 3.0 0.0 6 32
+ 0.27 1 2 cbr 500 ------- 2 1.0 3.1 17 33
- 0.27 1 2 cbr 500 ------- 2 1.0 3.1 17 33
r 0.272 1 2 cbr 500 ------- 2 1.0 3.1 16 30
+ 0.272 2 3 cbr 500 ------- 2 1.0 3.1 16 30
- 0.272 2 3 cbr 500 ------- 2 1.0 3.1 16 30
r 0.273307 2 3 tcp 1040 ------- 1 0.0 3.0 7 26
+ 0.273307 3 2 ack 40 ------- 1 3.0 0.0 7 34
- 0.273307 3 2 ack 40 ------- 1 3.0 0.0 7 34
r 0.27464 2 3 cbr 500 ------- 2 1.0 3.1 14 27
r 0.277467 2 3 tcp 1040 ------- 1 0.0 3.0 8 28
+ 0.277467 3 2 ack 40 ------- 1 3.0 0.0 8 35
- 0.277467 3 2 ack 40 ------- 1 3.0 0.0 8 35
+ 0.28 1 2 cbr 500 ------- 2 1.0 3.1 18 36
- 0.28 1 2 cbr 500 ------- 2 1.0 3.1 18 36
r 0.282 1 2 cbr 500 ------- 2 1.0 3.1 17 33
+ 0.282 2 3 cbr 500 ------- 2 1.0 3.1 17 33
- 0.282 2 3 cbr 500 ------- 2 1.0 3.1 17 33
r 0.283333 2 3 cbr 500 ------- 2 1.0 3.1 15 29
r 0.284773 3 2 ack 40 ------- 1 3.0 0.0 5 31
+ 0.284773 2 0 ack 40 ------- 1 3.0 0.0 5 31
- 0.284773 2 0 ack 40 ------- 1 3.0 0.0 5 31
r 0.288933 3 2 ack 40 ------- 1 3.0 0.0 6 32
+ 0.288933 2 0 ack 40 ------- 1 3.0 0.0 6 32
- 0.288933 2 0 ack 40 ------- 1 3.0 0.0 6 32
+ 0.29 1 2 cbr 500 ------- 2 1.0 3.1 19 37
- 0.29 1 2 cbr 500 ------- 2 1.0 3.1 19 37
r 0.292 1 2 cbr 500 ------- 2 1.0 3.1 18 36
+ 0.292 2 3 cbr 500 ------- 2 1.0 3.1 18 36
- 0.292 2 3 cbr 500 ------- 2 1.0 3.1 18 36
r 0.293333 2 3 cbr 500 ------- 2 1.0 3.1 16 30
r 0.293413 3 2 ack 40 ------- 1 3.0 0.0 7 34
+ 0.293413 2 0 ack 40 ------- 1 3.0 0.0 7 34
- 0.293413 2 0 ack 40 ------- 1 3.0 0.0 7 34
r 0.294933 2 0 ack 40 ------- 1 3.0 0.0 5 31
+ 0.294933 0 2 tcp 1040 ------- 1 0.0 3.0 9 38
- 0.294933 0 2 tcp 1040 ------- 1 0.0 3.0 9 38
r 0.297573 3 2 ack 40 ------- 1 3.0 0.0 8 35
+ 0.297573 2 0 ack 40 ------- 1 3.0 0.0 8 35
- 0.297573 2 0 ack 40 ------- 1 3.0 0.0 8 35
r 0.299093 2 0 ack 40 ------- 1 3.0 0.0 6 32
+ 0.299093 0 2 tcp 1040 ------- 1 0.0 3.0 10 39
- 0.299093 0 2 tcp 1040 ------- 1 0.0 3.0 10 39
+ 0.3 1 2 cbr 500 ------- 2 1.0 3.1 20 40
- 0.3 1 2 cbr 500 ------- 2 1.0 3.1 20 40
r 0.302 1 2 cbr 500 ------- 2 1.0 3.1 19 37
+ 0.302 2 3 cbr 500 ------- 2 1.0 3.1 19 37
- 0.302 2 3 cbr 500 ------- 2 1.0 3.1 19 37
r 0.303333 2 3 cbr 500 ------- 2 1.0 3.1 17 33
r 0.303573 2 0 ack 40 ------- 1 3.0 0.0 7 34
+ 0.303573 0 2 tcp 1040 ------- 1 0.0 3.0 11 41
- 0.303573 0 2 tcp 1040 ------- 1 0.0 3.0 11 41
r 0.307733 2 0 ack 40 ------- 1 3.0 0.0 8 35
+ 0.307733 0 2 tcp 1040 ------- 1 0.0 3.0 12 42
- 0.307733 0 2 tcp 1040 ------- 1 0.0 3.0 12 42
r 0.309093 0 2 tcp 1040 ------- 1 0.0 3.0 9 38
+ 0.309093 2 3 tcp 1040 ------- 1 0.0 3.0 9 38
- 0.309093 2 3 tcp 1040 ------- 1 0.0 3.0 9 38
+ 0.31 1 2 cbr 500 ------- 2 1.0 3.1 21 43
- 0.31 1 2 cbr 500 ------- 2 1.0 3.1 21 43
r 0.312 1 2 cbr 500 ------- 2 1.0 3.1 20 40
+ 0.312 2 3 cbr 500 ------- 2 1.0 3.1 20 40
- 0.312 2 3 cbr 500 ------- 2 1.0 3.1 20 40
r 0.313253 0 2 tcp 1040 ------- 1 0.0 3.0 10 39
+ 0.313253 2 3 tcp 1040 ------- 1 0.0 3.0 10 39
r 0.313333 2 3 cbr 500 ------- 2 1.0 3.1 18 36
- 0.313333 2 3 tcp 1040 ------- 1 0.0 3.0 10 39
r 0.317733 0 2 tcp 1040 ------- 1 0.0 3.0 11 41
+ 0.317733 2 3 tcp 1040 ------- 1 0.0 3.0 11 41
- 0.317733 2 3 tcp 1040 ------- 1 0.0 3.0 11 41
+ 0.32 1 2 cbr 500 ------- 2 1.0 3.1 22 44
- 0.32 1 2 cbr 500 ------- 2 1.0 3.1 22 44
r 0.321893 0 2 tcp 1040 ------- 1 0.0 3.0 12 42
+ 0.321893 2 3 tcp 1040 ------- 1 0.0 3.0 12 42
- 0.321893 2 3 tcp 1040 ------- 1 0.0 3.0 12 42
r 0.322 1 2 cbr 500 ------- 2 1.0 3.1 21 43
+ 0.322 2 3 cbr 500 ------- 2 1.0 3.1 21 43
r 0.323333 2 3 cbr 500 ------- 2 1.0 3.1 19 37
- 0.324667 2 3 cbr 500 ------- 2 1.0 3.1 21 43
+ 0.33 1 2 cbr 500 ------- 2 1.0 3.1 23 45
- 0.33 1 2 cbr 500 ------- 2 1.0 3.1 23 45
r 0.331867 2 3 tcp 1040 ------- 1 0.0 3.0 9 38
+ 0.331867 3 2 ack 40 ------- 1 3.0 0.0 9 46
- 0.331867 3 2 ack 40 ------- 1 3.0 0.0 9 46
r 0.332 1 2 cbr 500 ------- 2 1.0 3.1 22 44
+ 0.332 2 3 cbr 500 ------- 2 1.0 3.1 22 44
- 0.332 2 3 cbr 500 ------- 2 1.0 3.1 22 44
r 0.333333 2 3 cbr 500 ------- 2 1.0 3.1 20 40
r 0.336107 2 3 tcp 1040 ------- 1 0.0 3.0 10 39
+ 0.336107 3 2 ack 40 ------- 1 3.0 0.0 10 47
- 0.336107 3 2 ack 40 ------- 1 3.0 0.0 10 47
+ 0.34 1 2 cbr 500 ------- 2 1.0 3.1 24 48
- 0.34 1 2 cbr 500 ------- 2 1.0 3.1 24 48
r 0.340507 2 3 tcp 1040 ------- 1 0.0 3.0 11 41
+ 0.340507 3 2 ack 40 ------- 1 3.0 0.0 11 49
- 0.340507 3 2 ack 40 ------- 1 3.0 0.0 11 49
r 0.342 1 2 cbr 500 ------- 2 1.0 3.1 23 45
+ 0.342 2 3 cbr 500 ------- 2 1.0 3.1 23 45
- 0.342 2 3 cbr 500 ------- 2 1.0 3.1 23 45
r 0.344667 2 3 tcp 1040 ------- 1 0.0 3.0 12 42
+ 0.344667 3 2 ack 40 ------- 1 3.0 0.0 12 50
- 0.344667 3 2 ack 40 ------- 1 3.0 0.0 12 50
r 0.346 2 3 cbr 500 ------- 2 1.0 3.1 21 43
+ 0.35 1 2 cbr 500 ------- 2 1.0 3.1 25 51
- 0.35 1 2 cbr 500 ------- 2 1.0 3.1 25 51
r 0.351973 3 2 ack 40 ------- 1 3.0 0.0 9 46
+ 0.351973 2 0 ack 40 ------- 1 3.0 0.0 9 46
- 0.351973 2 0 ack 40 ------- 1 3.0 0.0 9 46
r 0.352 1 2 cbr 500 ------- 2 1.0 3.1 24 48
+ 0.352 2 3 cbr 500 ------- 2 1.0 3.1 24 48
- 0.352 2 3 cbr 500 ------- 2 1.0 3.1 24 48
r 0.353333 2 3 cbr 500 ------- 2 1.0 3.1 22 44
r 0.356213 3 2 ack 40 ------- 1 3.0 0.0 10 47
+ 0.356213 2 0 ack 40 ------- 1 3.0 0.0 10 47
- 0.356213 2 0 ack 40 ------- 1 3.0 0.0 10 47
+ 0.36 1 2 cbr 500 ------- 2 1.0 3.1 26 52
- 0.36 1 2 cbr 500 ------- 2 1.0 3.1 26 52
r 0.360613 3 2 ack 40 ------- 1 3.0 0.0 11 49
+ 0.360613 2 0 ack 40 ------- 1 3.0 0.0 11 49
- 0.360613 2 0 ack 40 ------- 1 3.0 0.0 11 49
r 0.362 1 2 cbr 500 ------- 2 1.0 3.1 25 51
+ 0.362 2 3 cbr 500 ------- 2 1.0 3.1 25 51
- 0.362 2 3 cbr 500 ------- 2 1.0 3.1 25 51
r 0.362133 2 0 ack 40 ------- 1 3.0 0.0 9 46
+ 0.362133 0 2 tcp 1040 ------- 1 0.0 3.0 13 53
- 0.362133 0 2 tcp 1040 ------- 1 0.0 3.0 13 53
r 0.363333 2 3 cbr 500 ------- 2 1.0 3.1 23 45
r 0.364773 3 2 ack 40 ------- 1 3.0 0.0 12 50
+ 0.364773 2 0 ack 40 ------- 1 3.0 0.0 12 50
- 0.364773 2 0 ack 40 ------- 1 3.0 0.0 12 50
r 0.366373 2 0 ack 40 ------- 1 3.0 0.0 10 47
+ 0.366373 0 2 tcp 1040 ------- 1 0.0 3.0 14 54
- 0.366373 0 2 tcp 1040 ------- 1 0.0 3.0 14 54
+ 0.37 1 2 cbr 500 ------- 2 1.0 3.1 27 55
- 0.37 1 2 cbr 500 ------- 2 1.0 3.1 27 55
r 0.370773 2 0 ack 40 ------- 1 3.0 0.0 11 49
+ 0.370773 0 2 tcp 1040 ------- 1 0.0 3.0 15 56
- 0.370773 0 2 tcp 1040 ------- 1 0.0 3.0 15 56
r 0.372 1 2 cbr 500 ------- 2 1.0 3.1 26 52
+ 0.372 2 3 cbr 500 ------- 2 1.0 3.1 26 52
- 0.372 2 3 cbr 500 ------- 2 1.0 3.1 26 52
r 0.373333 2 3 cbr 500 ------- 2 1.0 3.1 24 48
r 0.374933 2 0 ack 40 ------- 1 3.0 0.0 12 50
+ 0.374933 0 2 tcp 1040 ------- 1 0.0 3.0 16 57
- 0.374933 0 2 tcp 1040 ------- 1 0.0 3.0 16 57
r 0.376293 0 2 tcp 1040 ------- 1 0.0 3.0 13 53
+ 0.376293 2 3 tcp 1040 ------- 1 0.0 3.0 13 53
- 0.376293 2 3 tcp 1040 ------- 1 0.0 3.0 13 53
+ 0.38 1 2 cbr 500 ------- 2 1.0 3.1 28 58
- 0.38 1 2 cbr 500 ------- 2 1.0 3.1 28 58
r 0.380533 0 2 tcp 1040 ------- 1 0.0 3.0 14 54
+ 0.380533 2 3 tcp 1040 ------- 1 0.0 3.0 14 54
- 0.380533 2 3 tcp 1040 ------- 1 0.0 3.0 14 54
r 0.382 1 2 cbr 500 ------- 2 1.0 3.1 27 55
+ 0.382 2 3 cbr 500 ------- 2 1.0 3.1 27 55
- 0.383307 2 3 cbr 500 ------- 2 1.0 3.1 27 55
r 0.383333 2 3 cbr 500 ------- 2 1.0 3.1 25 51
r 0.384933 0 2 tcp 1040 ------- 1 0.0 3.0 15 56
+ 0.384933 2 3 tcp 1040 ------- 1 0.0 3.0 15 56
- 0.384933 2 3 tcp 1040 ------- 1 0.0 3.0 15 56
r 0.389093 0 2 tcp 1040 ------- 1 0.0 3.0 16 57
+ 0.389093 2 3 tcp 1040 ------- 1 0.0 3.0 16 57
- 0.389093 2 3 tcp 1040 ------- 1 0.0 3.0 16 57
+ 0.39 1 2 cbr 500 ------- 2 1.0 3.1 29 59
- 0.39 1 2 cbr 500 ------- 2 1.0 3.1 29 59
r 0.392 1 2 cbr 500 ------- 2 1.0 3.1 28 58
+ 0.392 2 3 cbr 500 ------- 2 1.0 3.1 28 58
- 0.392 2 3 cbr 500 ------- 2 1.0 3.1 28 58
r 0.393333 2 3 cbr 500 ------- 2 1.0 3.1 26 52
r 0.399067 2 3 tcp 1040 ------- 1 0.0 3.0 13 53
+ 0.399067 3 2 ack 40 ------- 1 3.0 0.0 13 60
- 0.399067 3 2 ack 40 ------- 1 3.0 0.0 13 60
+ 0.4 1 2 cbr 500 ------- 2 1.0 3.1 30 61
- 0.4 1 2 cbr 500 ------- 2 1.0 3.1 30 61
r 0.402 1 2 cbr 500 ------- 2 1.0 3.1 29 59
+ 0.402 2 3 cbr 500 ------- 2 1.0 3.1 29 59
- 0.402 2 3 cbr 500 ------- 2 1.0 3.1 29 59
r 0.403307 2 3 tcp 1040 ------- 1 0.0 3.0 14 54
+ 0.403307 3 2 ack 40 ------- 1 3.0 0.0 14 62
- 0.403307 3 2 ack 40 ------- 1 3.0 0.0 14 62
r 0.40464 2 3 cbr 500 ------- 2 1.0 3.1 27 55
r 0.407707 2 3 tcp 1040 ------- 1 0.0 3.0 15 56
+ 0.407707 3 2 ack 40 ------- 1 3.0 0.0 15 63
- 0.407707 3 2 ack 40 ------- 1 3.0 0.0 15 63
+ 0.41 1 2 cbr 500 ------- 2 1.0 3.1 31 64
- 0.41 1 2 cbr 500 ------- 2 1.0 3.1 31 64
r 0.411867 2 3 tcp 1040 ------- 1 0.0 3.0 16 57
+ 0.411867 3 2 ack 40 ------- 1 3.0 0.0 16 65
- 0.411867 3 2 ack 40 ------- 1 3.0 0.0 16 65
r 0.412 1 2 cbr 500 ------- 2 1.0 3.1 30 61
+ 0.412 2 3 cbr 500 ------- 2 1.0 3.1 30 61
- 0.412 2 3 cbr 500 ------- 2 1.0 3.1 30 61
r 0.413333 2 3 cbr 500 ------- 2 1.0 3.1 28 58
r 0.419173 3 2 ack 40 ------- 1 3.0 0.0 13 60
+ 0.419173 2 0 ack 40 ------- 1 3.0 0.0 13 60
- 0.419173 2 0 ack 40 ------- 1 3.0 0.0 13 60
+ 0.42 1 2 cbr 500 ------- 2 1.0 3.1 32 66
- 0.42 1 2 cbr 500 ------- 2 1.0 3.1 32 66
r 0.422 1 2 cbr 500 ------- 2 1.0 3.1 31 64
+ 0.422 2 3 cbr 500 ------- 2 1.0 3.1 31 64
- 0.422 2 3 cbr 500 ------- 2 1.0 3.1 31 64
r 0.423333 2 3 cbr 500 ------- 2 1.0 3.1 29 59
r 0.423413 3 2 ack 40 ------- 1 3.0 0.0 14 62
+ 0.423413 2 0 ack 40 ------- 1 3.0 0.0 14 62
- 0.423413 2 0 ack 40 ------- 1 3.0 0.0 14 62
r 0.427813 3 2 ack 40 ------- 1 3.0 0.0 15 63
+ 0.427813 2 0 ack 40 ------- 1 3.0 0.0 15 63
- 0.427813 2 0 ack 40 ------- 1 3.0 0.0 15 63
r 0.429333 2 0 ack 40 ------- 1 3.0 0.0 13 60
+ 0.429333 0 2 tcp 1040 ------- 1 0.0 3.0 17 67
- 0.429333 0 2 tcp 1040 ------- 1 0.0 3.0 17 67
+ 0.43 1 2 cbr 500 ------- 2 1.0 3.1 33 68
- 0.43 1 2 cbr 500 ------- 2 1.0 3.1 33 68
r 0.431973 3 2 ack 40 ------- 1 3.0 0.0 16 65
+ 0.431973 2 0 ack 40 ------- 1 3.0 0.0 16 65
- 0.431973 2 0 ack 40 ------- 1 3.0 0.0 16 65
r 0.432 1 2 cbr 500 ------- 2 1.0 3.1 32 66
+ 0.432 2 3 cbr 500 ------- 2 1.0 3.1 32 66
- 0.432 2 3 cbr 500 ------- 2 1.0 3.1 32 66
r 0.433333 2 3 cbr 500 ------- 2 1.0 3.1 30 61
r 0.433573 2 0 ack 40 ------- 1 3.0 0.0 14 62
+ 0.433573 0 2 tcp 1040 ------- 1 0.0 3.0 18 69
- 0.433573 0 2 tcp 1040 ------- 1 0.0 3.0 18 69
r 0.437973 2 0 ack 40 ------- 1 3.0 0.0 15 63
+ 0.437973 0 2 tcp 1040 ------- 1 0.0 3.0 19 70
- 0.437973 0 2 tcp 1040 ------- 1 0.0 3.0 19 70
+ 0.44 1 2 cbr 500 ------- 2 1.0 3.1 34 71
- 0.44 1 2 cbr 500 ------- 2 1.0 3.1 34 71
r 0.442 1 2 cbr 500 ------- 2 1.0 3.1 33 68
+ 0.442 2 3 cbr 500 ------- 2 1.0 3.1 33 68
- 0.442 2 3 cbr 500 ------- 2 1.0 3.1 33 68
r 0.442133 2 0 ack 40 ------- 1 3.0 0.0 16 65
+ 0.442133 0 2 tcp 1040 ------- 1 0.0 3.0 20 72
- 0.442133 0 2 tcp 1040 ------- 1 0.0 3.0 20 72
r 0.443333 2 3 cbr 500 ------- 2 1.0 3.1 31 64
r 0.443493 0 2 tcp 1040 ------- 1 0.0 3.0 17 67
+ 0.443493 2 3 tcp 1040 ------- 1 0.0 3.0 17 67
- 0.443493 2 3 tcp 1040 ------- 1 0.0 3.0 17 67
r 0.447733 0 2 tcp 1040 ------- 1 0.0 3.0 18 69
+ 0.447733 2 3 tcp 1040 ------- 1 0.0 3.0 18 69
- 0.447733 2 3 tcp 1040 ------- 1 0.0 3.0 18 69
+ 0.45 1 2 cbr 500 ------- 2 1.0 3.1 35 73
- 0.45 1 2 cbr 500 ------- 2 1.0 3.1 35 73
r 0.452 1 2 cbr 500 ------- 2 1.0 3.1 34 71
+ 0.452 2 3 cbr 500 ------- 2 1.0 3.1 34 71
- 0.452 2 3 cbr 500 ------- 2 1.0 3.1 34 71
r 0.452133 0 2 tcp 1040 ------- 1 0.0 3.0 19 70
+ 0.452133 2 3 tcp 1040 ------- 1 0.0 3.0 19 70
r 0.453333 2 3 cbr 500 ------- 2 1.0 3.1 32 66
- 0.453333 2 3 tcp 1040 ------- 1 0.0 3.0 19 70
r 0.456293 0 2 tcp 1040 ------- 1 0.0 3.0 20 72
+ 0.456293 2 3 tcp 1040 ------- 1 0.0 3.0 20 72
- 0.456293 2 3 tcp 1040 ------- 1 0.0 3.0 20 72
+ 0.46 1 2 cbr 500 ------- 2 1.0 3.1 36 74
- 0.46 1 2 cbr 500 ------- 2 1.0 3.1 36 74
r 0.462 1 2 cbr 500 ------- 2 1.0 3.1 35 73
+ 0.462 2 3 cbr 500 ------- 2 1.0 3.1 35 73
- 0.462 2 3 cbr 500 ------- 2 1.0 3.1 35 73
r 0.463333 2 3 cbr 500 ------- 2 1.0 3.1 33 68
r 0.466267 2 3 tcp 1040 ------- 1 0.0 3.0 17 67
+ 0.466267 3 2 ack 40 ------- 1 3.0 0.0 17 75
- 0.466267 3 2 ack 40 ------- 1 3.0 0.0 17 75
+ 0.47 1 2 cbr 500 ------- 2 1.0 3.1 37 76
- 0.47 1 2 cbr 500 ------- 2 1.0 3.1 37 76
r 0.470507 2 3 tcp 1040 ------- 1 0.0 3.0 18 69
+ 0.470507 3 2 ack 40 ------- 1 3.0 0.0 18 77
- 0.470507 3 2 ack 40 ------- 1 3.0 0.0 18 77
r 0.472 1 2 cbr 500 ------- 2 1.0 3.1 36 74
+ 0.472 2 3 cbr 500 ------- 2 1.0 3.1 36 74
- 0.472 2 3 cbr 500 ------- 2 1.0 3.1 36 74
r 0.473333 2 3 cbr 500 ------- 2 1.0 3.1 34 71
r 0.476107 2 3 tcp 1040 ------- 1 0.0 3.0 19 70
+ 0.476107 3 2 ack 40 ------- 1 3.0 0.0 19 78
- 0.476107 3 2 ack 40 ------- 1 3.0 0.0 19 78
r 0.479067 2 3 tcp 1040 ------- 1 0.0 3.0 20 72
+ 0.479067 3 2 ack 40 ------- 1 3.0 0.0 20 79
- 0.479067 3 2 ack 40 ------- 1 3.0 0.0 20 79
+ 0.48 1 2 cbr 500 ------- 2 1.0 3.1 38 80
- 0.48 1 2 cbr 500 ------- 2 1.0 3.1 38 80
r 0.482 1 2 cbr 500 ------- 2 1.0 3.1 37 76
+ 0.482 2 3 cbr 500 ------- 2 1.0 3.1 37 76
- 0.482 2 3 cbr 500 ------- 2 1.0 3.1 37 76
r 0.483333 2 3 cbr 500 ------- 2 1.0 3.1 35 73
r 0.486373 3 2 ack 40 ------- 1 3.0 0.0 17 75
+ 0.486373 2 0 ack 40 ------- 1 3.0 0.0 17 75
- 0.486373 2 0 ack 40 ------- 1 3.0 0.0 17 75
+ 0.49 1 2 cbr 500 ------- 2 1.0 3.1 39 81
- 0.49 1 2 cbr 500 ------- 2 1.0 3.1 39 81
r 0.490613 3 2 ack 40 ------- 1 3.0 0.0 18 77
+ 0.490613 2 0 ack 40 ------- 1 3.0 0.0 18 77
- 0.490613 2 0 ack 40 ------- 1 3.0 0.0 18 77
r 0.492 1 2 cbr 500 ------- 2 1.0 3.1 38 80
+ 0.492 2 3 cbr 500 ------- 2 1.0 3.1 38 80
- 0.492 2 3 cbr 500 ------- 2 1.0 3.1 38 80
r 0.493333 2 3 cbr 500 ------- 2 1.0 3.1 36 74
r 0.496213 3 2 ack 40 ------- 1 3.0 0.0 19 78
+ 0.496213 2 0 ack 40 ------- 1 3.0 0.0 19 78
- 0.496213 2 0 ack 40 ------- 1 3.0 0.0 19 78
r 0.496533 2 0 ack 40 ------- 1 3.0 0.0 17 75
+ 0.496533 0 2 tcp 1040 ------- 1 0.0 3.0 21 82
- 0.496533 0 2 tcp 1040 ------- 1 0.0 3.0 21 82
r 0.499173 3 2 ack 40 ------- 1 3.0 0.0 20 79
+ 0.499173 2 0 ack 40 ------- 1 3.0 0.0 20 79
- 0.499173 2 0 ack 40 ------- 1 3.0 0.0 20 79
+ 0.5 1 2 cbr 500 ------- 2 1.0 3.1 40 83
- 0.5 1 2 cbr 500 ------- 2 1.0 3.1 40 83
r 0.500773 2 0 ack 40 ------- 1 3.0 0.0 18 77
+ 0.500773 0 2 tcp 1040 ------- 1 0.0 3.0 22 84
- 0.500773 0 2 tcp 1040 ------- 1 0.0 3.0 22 84
r 0.502 1 2 cbr 500 ------- 2 1.0 3.1 39 81
+ 0.502 2 3 cbr 500 ------- 2 1.0 3.1 39 81
- 0.502 2 3 cbr 500 ------- 2 1.0 3.1 39 81
r 0.503333 2 3 cbr 500 ------- 2 1.0 3.1 37 76
r 0.506373 2 0 ack 40 ------- 1 3.0 0.0 19 78
+ 0.506373 0 2 tcp 1040 ------- 1 0.0 3.0 23 85
- 0.506373 0 2 tcp 1040 ------- 1 0.0 3.0 23 85
r 0.509333 2 0 ack 40 ------- 1 3.0 0.0 20 79
+ 0.509333 0 2 tcp 1040 ------- 1 0.0 3.0 24 86
+ 0.51 1 2 cbr 500 ------- 2 1.0 3.1 41 87
- 0.51 1 2 cbr 500 ------- 2 1.0 3.1 41 87
- 0.510533 0 2 tcp 1040 ------- 1 0.0 3.0 24 86
r 0.510693 0 2 tcp 1040 ------- 1 0.0 3.0 21 82
+ 0.510693 2 3 tcp 1040 ------- 1 0.0 3.0 21 82
- 0.510693 2 3 tcp 1040 ------- 1 0.0 3.0 21 82
r 0.512 1 2 cbr 500 ------- 2 1.0 3.1 40 83
+ 0.512 2 3 cbr 500 ------- 2 1.0 3.1 40 83
r 0.513333 2 3 cbr 500 ------- 2 1.0 3.1 38 80
- 0.513467 2 3 cbr 500 ------- 2 1.0 3.1 40 83
r 0.514933 0 2 tcp 1040 ------- 1 0.0 3.0 22 84
+ 0.514933 2 3 tcp 1040 ------- 1 0.0 3.0 22 84
- 0.514933 2 3 tcp 1040 ------- 1 0.0 3.0 22 84
+ 0.52 1 2 cbr 500 ------- 2 1.0 3.1 42 88
- 0.52 1 2 cbr 500 ------- 2 1.0 3.1 42 88
r 0.520533 0 2 tcp 1040 ------- 1 0.0 3.0 23 85
+ 0.520533 2 3 tcp 1040 ------- 1 0.0 3.0 23 85
- 0.520533 2 3 tcp 1040 ------- 1 0.0 3.0 23 85
r 0.522 1 2 cbr 500 ------- 2 1.0 3.1 41 87
+ 0.522 2 3 cbr 500 ------- 2 1.0 3.1 41 87
- 0.523307 2 3 cbr 500 ------- 2 1.0 3.1 41 87
r 0.523333 2 3 cbr 500 ------- 2 1.0 3.1 39 81
r 0.524693 0 2 tcp 1040 ------- 1 0.0 3.0 24 86
+ 0.524693 2 3 tcp 1040 ------- 1 0.0 3.0 24 86
- 0.524693 2 3 tcp 1040 ------- 1 0.0 3.0 24 86
+ 0.53 1 2 cbr 500 ------- 2 1.0 3.1 43 89
- 0.53 1 2 cbr 500 ------- 2 1.0 3.1 43 89
r 0.532 1 2 cbr 500 ------- 2 1.0 3.1 42 88
+ 0.532 2 3 cbr 500 ------- 2 1.0 3.1 42 88
- 0.532 2 3 cbr 500 ------- 2 1.0 3.1 42 88
r 0.533467 2 3 tcp 1040 ------- 1 0.0 3.0 21 82
+ 0.533467 3 2 ack 40 ------- 1 3.0 0.0 21 90
- 0.533467 3 2 ack 40 ------- 1 3.0 0.0 21 90
r 0.5348 2 3 cbr 500 ------- 2 1.0 3.1 40 83
r 0.537707 2 3 tcp 1040 ------- 1 0.0 3.0 22 84
+ 0.537707 3 2 ack 40 ------- 1 3.0 0.0 22 91
- 0.537707 3 2 ack 40 ------- 1 3.0 0.0 22 91
+ 0.54 1 2 cbr 500 ------- 2 1.0 3.1 44 92
- 0.54 1 2 cbr 500 ------- 2 1.0 3.1 44 92
r 0.542 1 2 cbr 500 ------- 2 1.0 3.1 43 89
+ 0.542 2 3 cbr 500 ------- 2 1.0 3.1 43 89
- 0.542 2 3 cbr 500 ------- 2 1.0 3.1 43 89
r 0.543307 2 3 tcp 1040 ------- 1 0.0 3.0 23 85
+ 0.543307 3 2 ack 40 ------- 1 3.0 0.0 23 93
- 0.543307 3 2 ack 40 ------- 1 3.0 0.0 23 93
r 0.54464 2 3 cbr 500 ------- 2 1.0 3.1 41 87
r 0.547467 2 3 tcp 1040 ------- 1 0.0 3.0 24 86
+ 0.547467 3 2 ack 40 ------- 1 3.0 0.0 24 94
- 0.547467 3 2 ack 40 ------- 1 3.0 0.0 24 94
+ 0.55 1 2 cbr 500 ------- 2 1.0 3.1 45 95
- 0.55 1 2 cbr 500 ------- 2 1.0 3.1 45 95
r 0.552 1 2 cbr 500 ------- 2 1.0 3.1 44 92
+ 0.552 2 3 cbr 500 ------- 2 1.0 3.1 44 92
- 0.552 2 3 cbr 500 ------- 2 1.0 3.1 44 92
r 0.553333 2 3 cbr 500 ------- 2 1.0 3.1 42 88
r 0.553573 3 2 ack 40 ------- 1 3.0 0.0 21 90
+ 0.553573 2 0 ack 40 ------- 1 3.0 0.0 21 90
- 0.553573 2 0 ack 40 ------- 1 3.0 0.0 21 90
r 0.557813 3 2 ack 40 ------- 1 3.0 0.0 22 91
+ 0.557813 2 0 ack 40 ------- 1 3.0 0.0 22 91
- 0.557813 2 0 ack 40 ------- 1 3.0 0.0 22 91
+ 0.56 1 2 cbr 500 ------- 2 1.0 3.1 46 96
- 0.56 1 2 cbr 500 ------- 2 1.0 3.1 46 96
r 0.562 1 2 cbr 500 ------- 2 1.0 3.1 45 95
+ 0.562 2 3 cbr 500 ------- 2 1.0 3.1 45 95
- 0.562 2 3 cbr 500 ------- 2 1.0 3.1 45 95
r 0.563333 2 3 cbr 500 ------- 2 1.0 3.1 43 89
r 0.563413 3 2 ack 40 ------- 1 3.0 0.0 23 93
+ 0.563413 2 0 ack 40 ------- 1 3.0 0.0 23 93
- 0.563413 2 0 ack 40 ------- 1 3.0 0.0 23 93
r 0.563733 2 0 ack 40 ------- 1 3.0 0.0 21 90
+ 0.563733 0 2 tcp 1040 ------- 1 0.0 3.0 25 97
- 0.563733 0 2 tcp 1040 ------- 1 0.0 3.0 25 97
r 0.567573 3 2 ack 40 ------- 1 3.0 0.0 24 94
+ 0.567573 2 0 ack 40 ------- 1 3.0 0.0 24 94
- 0.567573 2 0 ack 40 ------- 1 3.0 0.0 24 94
r 0.567973 2 0 ack 40 ------- 1 3.0 0.0 22 91
+ 0.567973 0 2 tcp 1040 ------- 1 0.0 3.0 26 98
- 0.567973 0 2 tcp 1040 ------- 1 0.0 3.0 26 98
+ 0.57 1 2 cbr 500 ------- 2 1.0 3.1 47 99
- 0.57 1 2 cbr 500 ------- 2 1.0 3.1 47 99
r 0.572 1 2 cbr 500 ------- 2 1.0 3.1 46 96
+ 0.572 2 3 cbr 500 ------- 2 1.0 3.1 46 96
- 0.572 2 3 cbr 500 ------- 2 1.0 3.1 46 96
r 0.573333 2 3 cbr 500 ------- 2 1.0 3.1 44 92
r 0.573573 2 0 ack 40 ------- 1 3.0 0.0 23 93
+ 0.573573 0 2 tcp 1040 ------- 1 0.0 3.0 27 100
- 0.573573 0 2 tcp 1040 ------- 1 0.0 3.0 27 100
r 0.577733 2 0 ack 40 ------- 1 3.0 0.0 24 94
+ 0.577733 0 2 tcp 1040 ------- 1 0.0 3.0 28 101
- 0.577733 0 2 tcp 1040 ------- 1 0.0 3.0 28 101
r 0.577893 0 2 tcp 1040 ------- 1 0.0 3.0 25 97
+ 0.577893 2 3 tcp 1040 ------- 1 0.0 3.0 25 97
- 0.577893 2 3 tcp 1040 ------- 1 0.0 3.0 25 97
+ 0.58 1 2 cbr 500 ------- 2 1.0 3.1 48 102
- 0.58 1 2 cbr 500 ------- 2 1.0 3.1 48 102
r 0.582 1 2 cbr 500 ------- 2 1.0 3.1 47 99
+ 0.582 2 3 cbr 500 ------- 2 1.0 3.1 47 99
- 0.582 2 3 cbr 500 ------- 2 1.0 3.1 47 99
r 0.582133 0 2 tcp 1040 ------- 1 0.0 3.0 26 98
+ 0.582133 2 3 tcp 1040 ------- 1 0.0 3.0 26 98
r 0.583333 2 3 cbr 500 ------- 2 1.0 3.1 45 95
- 0.583333 2 3 tcp 1040 ------- 1 0.0 3.0 26 98
r 0.587733 0 2 tcp 1040 ------- 1 0.0 3.0 27 100
+ 0.587733 2 3 tcp 1040 ------- 1 0.0 3.0 27 100
- 0.587733 2 3 tcp 1040 ------- 1 0.0 3.0 27 100
+ 0.59 1 2 cbr 500 ------- 2 1.0 3.1 49 103
- 0.59 1 2 cbr 500 ------- 2 1.0 3.1 49 103
r 0.591893 0 2 tcp 1040 ------- 1 0.0 3.0 28 101
+ 0.591893 2 3 tcp 1040 ------- 1 0.0 3.0 28 101
- 0.591893 2 3 tcp 1040 ------- 1 0.0 3.0 28 101
r 0.592 1 2 cbr 500 ------- 2 1.0 3.1 48 102
+ 0.592 2 3 cbr 500 ------- 2 1.0 3.1 48 102
r 0.593333 2 3 cbr 500 ------- 2 1.0 3.1 46 96
- 0.594667 2 3 cbr 500 ------- 2 1.0 3.1 48 102
+ 0.6 1 2 cbr 500 ------- 2 1.0 3.1 50 104
- 0.6 1 2 cbr 500 ------- 2 1.0 3.1 50 104
r 0.600667 2 3 tcp 1040 ------- 1 0.0 3.0 25 97
+ 0.600667 3 2 ack 40 ------- 1 3.0 0.0 25 105
- 0.600667 3 2 ack 40 ------- 1 3.0 0.0 25 105
r 0.602 1 2 cbr 500 ------- 2 1.0 3.1 49 103
+ 0.602 2 3 cbr 500 ------- 2 1.0 3.1 49 103
- 0.602 2 3 cbr 500 ------- 2 1.0 3.1 49 103
r 0.603333 2 3 cbr 500 ------- 2 1.0 3.1 47 99
r 0.606107 2 3 tcp 1040 ------- 1 0.0 3.0 26 98
+ 0.606107 3 2 ack 40 ------- 1 3.0 0.0 26 106
- 0.606107 3 2 ack 40 ------- 1 3.0 0.0 26 106
+ 0.61 1 2 cbr 500 ------- 2 1.0 3.1 51 107
- 0.61 1 2 cbr 500 ------- 2 1.0 3.1 51 107
r 0.610507 2 3 tcp 1040 ------- 1 0.0 3.0 27 100
+ 0.610507 3 2 ack 40 ------- 1 3.0 0.0 27 108
- 0.610507 3 2 ack 40 ------- 1 3.0 0.0 27 108
r 0.612 1 2 cbr 500 ------- 2 1.0 3.1 50 104
+ 0.612 2 3 cbr 500 ------- 2 1.0 3.1 50 104
- 0.612 2 3 cbr 500 ------- 2 1.0 3.1 50 104
r 0.614667 2 3 tcp 1040 ------- 1 0.0 3.0 28 101
+ 0.614667 3 2 ack 40 ------- 1 3.0 0.0 28 109
- 0.614667 3 2 ack 40 ------- 1 3.0 0.0 28 109
r 0.616 2 3 cbr 500 ------- 2 1.0 3.1 48 102
+ 0.62 1 2 cbr 500 ------- 2 1.0 3.1 52 110
- 0.62 1 2 cbr 500 ------- 2 1.0 3.1 52 110
r 0.620773 3 2 ack 40 ------- 1 3.0 0.0 25 105
+ 0.620773 2 0 ack 40 ------- 1 3.0 0.0 25 105
- 0.620773 2 0 ack 40 ------- 1 3.0 0.0 25 105
r 0.622 1 2 cbr 500 ------- 2 1.0 3.1 51 107
+ 0.622 2 3 cbr 500 ------- 2 1.0 3.1 51 107
- 0.622 2 3 cbr 500 ------- 2 1.0 3.1 51 107
r 0.623333 2 3 cbr 500 ------- 2 1.0 3.1 49 103
r 0.626213 3 2 ack 40 ------- 1 3.0 0.0 26 106
+ 0.626213 2 0 ack 40 ------- 1 3.0 0.0 26 106
- 0.626213 2 0 ack 40 ------- 1 3.0 0.0 26 106
+ 0.63 1 2 cbr 500 ------- 2 1.0 3.1 53 111
- 0.63 1 2 cbr 500 ------- 2 1.0 3.1 53 111
r 0.630613 3 2 ack 40 ------- 1 3.0 0.0 27 108
+ 0.630613 2 0 ack 40 ------- 1 3.0 0.0 27 108
- 0.630613 2 0 ack 40 ------- 1 3.0 0.0 27 108
r 0.630933 2 0 ack 40 ------- 1 3.0 0.0 25 105
+ 0.630933 0 2 tcp 1040 ------- 1 0.0 3.0 29 112
- 0.630933 0 2 tcp 1040 ------- 1 0.0 3.0 29 112
r 0.632 1 2 cbr 500 ------- 2 1.0 3.1 52 110
+ 0.632 2 3 cbr 500 ------- 2 1.0 3.1 52 110
- 0.632 2 3 cbr 500 ------- 2 1.0 3.1 52 110